 # LAMMPS timestep 98289
 
         320  atoms
           1  atom types
 
      0.000000000000      28.900750000000  xlo xhi
      0.000000000000      23.120600000000  ylo yhi
      0.000000000000      23.120600000000  zlo zhi
 
Masses
 
1   39.94800200             # Ar
 
Atoms # atomic
 
         1    1       11.853800000000       0.053540800000       0.667189000000
         2    1       18.631900000000      15.745400000000       3.397040000000
         3    1        9.240590000000      21.402300000000       2.238510000000
         4    1       26.003700000000      22.465800000000       0.760354000000
         5    1       25.777500000000      19.311100000000      22.213800000000
         6    1       10.354700000000      16.062500000000      20.928100000000
         7    1       12.276200000000      22.384800000000      20.072300000000
         8    1        2.490110000000      15.548200000000      18.874700000000
         9    1       20.476000000000      12.330100000000      17.784700000000
        10    1       20.010100000000      21.764600000000       2.160630000000
        11    1       23.745100000000      14.622600000000      19.179900000000
        12    1       13.409300000000      18.856600000000      20.670600000000
        13    1        2.165440000000      22.574300000000       3.863350000000
        14    1       23.773500000000      10.916600000000       0.339136000000
        15    1       28.189200000000       8.964240000000       2.337630000000
        16    1       13.732000000000       2.223980000000       6.210620000000
        17    1       26.716300000000       4.672490000000      19.517200000000
        18    1        4.817670000000      22.005000000000      18.454800000000
        19    1       20.500600000000      21.256800000000      13.660500000000
        20    1       25.954900000000      12.898600000000      12.145100000000
        21    1       28.052200000000       6.187450000000      22.447800000000
        22    1        1.530280000000       3.893580000000      20.813600000000
        23    1        6.779270000000      18.314500000000       0.883626000000
        24    1       28.731100000000      12.325500000000       3.393220000000
        25    1       25.718200000000      14.895700000000      15.387800000000
        26    1        3.376640000000      10.249600000000      19.809200000000
        27    1       13.298500000000      21.419100000000       3.401040000000
        28    1        8.798390000000      10.769400000000       1.413320000000
        29    1       18.832400000000       2.160010000000       0.676699000000
        30    1       26.945200000000       0.716268000000       4.368690000000
        31    1        8.604300000000       4.611190000000       8.605030000000
        32    1       11.560000000000      14.895500000000       4.019470000000
        33    1        2.365120000000       4.486240000000       1.282600000000
        34    1        5.066580000000       5.952790000000       7.646510000000
        35    1        1.157030000000       8.231440000000      16.498400000000
        36    1       14.594200000000      10.831100000000      22.153600000000
        37    1       22.385700000000      10.196500000000       6.024700000000
        38    1       23.731800000000       2.351740000000      19.237700000000
        39    1       25.190700000000      17.060000000000       2.632940000000
        40    1       19.417000000000      17.947400000000       6.331640000000
        41    1       27.181400000000       5.363580000000       2.875510000000
        42    1       27.782300000000      11.417000000000      15.420500000000
        43    1        2.338390000000      21.479900000000      14.784200000000
        44    1       16.517000000000       7.829550000000       7.087800000000
        45    1       28.560400000000       1.647740000000       8.858360000000
        46    1        9.582140000000      19.791800000000      22.216500000000
        47    1        7.285880000000      14.800200000000       1.016140000000
        48    1        1.071430000000       3.838110000000       4.279980000000
        49    1        9.160760000000       3.487520000000      12.295600000000
        50    1        1.408340000000      12.300400000000      12.378700000000
        51    1       17.368800000000       7.839650000000      18.082800000000
        52    1        5.358900000000      14.138900000000      13.780600000000
        53    1       14.626200000000      16.839300000000       3.624760000000
        54    1       23.165000000000      16.832500000000      22.747600000000
        55    1       18.000200000000      12.122600000000       1.702110000000
        56    1        7.544980000000       0.213740000000      11.438300000000
        57    1       15.904500000000      11.856500000000      12.817700000000
        58    1        0.656907000000      20.132000000000      22.674000000000
        59    1       25.684200000000      13.924000000000      22.320400000000
        60    1       20.649600000000      16.474500000000      20.120900000000
        61    1       21.671400000000      13.274100000000      21.798500000000
        62    1       26.051400000000      21.269500000000      19.089100000000
        63    1       22.780800000000      20.103700000000       0.750705000000
        64    1        2.351850000000      16.539000000000      12.714000000000
        65    1       18.719700000000      15.229100000000       8.609410000000
        66    1       24.573800000000       7.565460000000       6.849440000000
        67    1        5.659950000000      12.361600000000       2.785540000000
        68    1        4.031880000000       5.812610000000      17.697800000000
        69    1       14.484700000000       8.186660000000       1.619140000000
        70    1       22.019900000000       6.030880000000      18.483300000000
        71    1       12.793600000000       9.269650000000       6.784470000000
        72    1        5.887100000000      20.221700000000       3.821210000000
        73    1       19.451700000000      12.485100000000      10.639700000000
        74    1       20.883800000000       5.276580000000       2.015970000000
        75    1       23.657300000000      21.636300000000       3.856420000000
        76    1       21.247100000000      18.457300000000       3.510650000000
        77    1        0.404684000000       4.888890000000      16.771600000000
        78    1       19.231100000000       8.752390000000       2.677890000000
        79    1       28.077700000000      19.891200000000       2.612840000000
        80    1        0.293844000000       1.153810000000       1.256080000000
        81    1        9.851060000000      11.480100000000       4.898450000000
        82    1        8.725590000000      21.204400000000       6.679600000000
        83    1       11.335900000000      12.098700000000      10.915600000000
        84    1        0.128286000000       9.262540000000       6.163560000000
        85    1        5.500960000000       6.807350000000       1.913500000000
        86    1        5.593470000000       1.774410000000       8.369850000000
        87    1        4.822480000000      13.266700000000      21.814400000000
        88    1       17.250900000000       1.007540000000       3.823090000000
        89    1       18.352000000000      15.322400000000       0.152348000000
        90    1       26.178200000000       3.120270000000      22.796700000000
        91    1       15.401000000000      21.909500000000       9.555710000000
        92    1       12.089500000000      18.165700000000       5.475860000000
        93    1       25.227500000000       2.074240000000      10.682200000000
        94    1       24.096800000000      21.279000000000      13.063100000000
        95    1       21.032700000000       9.244140000000      19.911100000000
        96    1       26.703000000000       8.268070000000       9.508840000000
        97    1       27.504000000000      20.885200000000      15.282300000000
        98    1        5.185920000000       3.644430000000      21.601800000000
        99    1        8.020890000000       5.576630000000      23.059200000000
       100    1       20.751000000000       2.454240000000       9.303410000000
       101    1       22.990900000000       9.367110000000       9.708790000000
       102    1        7.957340000000       8.573050000000       3.540930000000
       103    1        9.037400000000       7.291600000000       6.558890000000
       104    1        5.881750000000      22.920200000000      14.927500000000
       105    1       27.407300000000       5.129460000000      13.929200000000
       106    1        0.293842000000      21.954300000000       6.793570000000
       107    1       11.402600000000       7.133170000000       9.996410000000
       108    1       26.019500000000      11.036700000000       5.735220000000
       109    1       15.887900000000      21.763900000000       0.948842000000
       110    1       23.986400000000       8.182140000000       2.947330000000
       111    1        9.844340000000      10.104600000000       8.513440000000
       112    1        9.807020000000      17.490800000000       8.319620000000
       113    1       21.519600000000       5.854560000000       8.430940000000
       114    1       12.993600000000       4.801060000000      12.039000000000
       115    1       21.483000000000       2.110650000000      13.994100000000
       116    1       23.829800000000      11.660800000000      15.056600000000
       117    1       24.947800000000       2.846630000000      15.858100000000
       118    1       28.107400000000      11.587100000000       8.871990000000
       119    1        4.202260000000      21.045800000000       0.455432000000
       120    1        0.081506400000      15.318700000000       9.236150000000
       121    1       21.244000000000      11.663100000000       2.922140000000
       122    1       27.821300000000      16.660600000000       0.483031000000
       123    1        9.547760000000      11.626400000000      13.651200000000
       124    1       24.473700000000       8.822220000000      13.103500000000
       125    1        1.650430000000       7.178950000000       8.721830000000
       126    1        2.959890000000      10.351200000000       8.237550000000
       127    1        3.903080000000      20.531800000000       6.820000000000
       128    1       25.825800000000      22.672400000000       8.379900000000
       129    1        0.312214000000      15.035700000000      14.911000000000
       130    1       23.308900000000       5.719090000000      14.877400000000
       131    1       13.298300000000      18.765200000000       9.009780000000
       132    1        8.843810000000      12.719700000000      16.967100000000
       133    1       18.558900000000       0.720858000000      15.406100000000
       134    1       14.536200000000       8.535290000000      10.844300000000
       135    1       13.122600000000       2.538420000000      19.525700000000
       136    1       18.058500000000       9.516060000000      21.706700000000
       137    1       12.683400000000      11.833600000000      14.972900000000
       138    1       10.314500000000       6.215890000000      20.015900000000
       139    1        0.338601000000      18.098700000000      16.576100000000
       140    1        2.564090000000       3.960760000000       9.614910000000
       141    1        1.406190000000      19.871000000000      11.534100000000
       142    1        2.140150000000      14.424600000000       1.618700000000
       143    1       22.162900000000      22.340200000000      10.283300000000
       144    1        5.256330000000       7.169020000000      14.730800000000
       145    1        1.384670000000       1.764710000000      12.044400000000
       146    1       27.975800000000       5.311970000000       6.904660000000
       147    1        9.066830000000       8.591420000000      12.345200000000
       148    1       23.703200000000       5.040570000000       4.227830000000
       149    1       11.922400000000      13.106700000000       7.287480000000
       150    1       17.363000000000       1.011430000000       7.640840000000
       151    1       17.167400000000      20.025900000000      13.000500000000
       152    1        2.447750000000       1.863040000000       6.841110000000
       153    1       13.676500000000       5.941060000000       5.407000000000
       154    1       21.343400000000      14.694200000000       5.728580000000
       155    1        9.231750000000      15.317400000000      11.339400000000
       156    1        2.615360000000      19.170400000000       3.665250000000
       157    1       15.842700000000      11.963700000000       8.144310000000
       158    1       25.595200000000      18.961100000000       5.552500000000
       159    1        2.771620000000      22.592900000000      10.007600000000
       160    1        7.224680000000       5.095100000000       4.473600000000
       161    1       24.828800000000       3.907320000000       7.545140000000
       162    1       24.196900000000       6.111370000000      10.848600000000
       163    1       28.658400000000      18.904900000000       8.484920000000
       164    1        3.222930000000       0.704592000000      21.092400000000
       165    1       15.414600000000      22.881300000000      13.501000000000
       166    1        8.743970000000      21.871900000000      19.050700000000
       167    1       11.142000000000       7.179410000000       2.431550000000
       168    1       12.595400000000       4.958860000000      22.908100000000
       169    1       21.564300000000       2.161140000000       3.084430000000
       170    1       18.366000000000       5.350520000000       9.526080000000
       171    1       10.196700000000      21.622900000000      14.459500000000
       172    1        7.024500000000       1.947200000000      18.571700000000
       173    1       19.713700000000      20.012100000000       9.432210000000
       174    1       19.028600000000       5.989910000000      15.517700000000
       175    1       11.068400000000       8.812840000000      15.599600000000
       176    1       13.392200000000      20.123600000000      12.354900000000
       177    1       15.700300000000      -0.008695470000      17.191200000000
       178    1        5.413630000000      13.274400000000      18.104800000000
       179    1       22.475100000000      14.833300000000      12.852900000000
       180    1       14.663700000000       3.047100000000      14.784000000000
       181    1       12.616400000000      18.130100000000       1.026820000000
       182    1        4.683950000000      13.761800000000       6.243360000000
       183    1        4.356280000000       1.138190000000       1.383200000000
       184    1       12.410500000000      21.787100000000       7.165900000000
       185    1       11.469500000000      15.968800000000      14.092800000000
       186    1       28.595300000000      17.132400000000      20.590400000000
       187    1        5.017590000000      17.823400000000       9.689770000000
       188    1       11.422200000000       8.635920000000      22.345700000000
       189    1        7.497260000000      16.233800000000      16.698600000000
       190    1       22.612200000000      16.878300000000       8.518920000000
       191    1       17.114300000000      17.006500000000      19.454200000000
       192    1        7.145200000000      22.927900000000      22.425700000000
       193    1       15.601800000000      15.937500000000       7.006670000000
       194    1       24.894400000000      15.264600000000       5.851840000000
       195    1       27.637100000000       4.697270000000      10.461300000000
       196    1        9.354610000000       5.879150000000      15.261900000000
       197    1       15.836700000000      19.746500000000       6.685900000000
       198    1        8.695050000000       1.644970000000       6.515390000000
       199    1        0.024755700000       8.158080000000      12.537400000000
       200    1       22.810300000000      20.284500000000       7.114390000000
       201    1       28.800200000000      16.182500000000       4.495380000000
       202    1        5.894830000000       5.342590000000      11.439600000000
       203    1        5.868120000000       3.834790000000      15.178900000000
       204    1        5.795790000000       9.682280000000      22.940000000000
       205    1        7.263990000000       6.073530000000      18.409800000000
       206    1       13.116700000000      15.397300000000      10.324500000000
       207    1        2.713200000000       6.757590000000       5.047130000000
       208    1       12.549200000000      13.144500000000      18.244400000000
       209    1        2.121800000000       5.694490000000      13.370900000000
       210    1       15.937100000000      10.132000000000       4.418430000000
       211    1       10.883900000000       3.126820000000       2.736690000000
       212    1       19.165200000000      16.919500000000      12.915000000000
       213    1       18.884700000000      13.166500000000      14.017200000000
       214    1        1.950790000000      11.948300000000      16.845200000000
       215    1       15.653900000000       2.301090000000      10.406800000000
       216    1       23.056800000000      12.775200000000       8.405150000000
       217    1       20.722400000000       9.902830000000      12.881400000000
       218    1       25.437200000000      15.710800000000      10.064200000000
       219    1       13.959900000000       4.995630000000       8.590370000000
       220    1       20.546500000000       6.529950000000      12.091200000000
       221    1       22.991300000000       1.035020000000       6.050100000000
       222    1        6.505400000000      10.600800000000       6.336830000000
       223    1        7.260970000000      20.086200000000      16.166000000000
       224    1       22.054900000000       8.929140000000      16.400600000000
       225    1        5.278610000000      20.432100000000      12.562300000000
       226    1       26.189100000000       8.712140000000      17.491900000000
       227    1        7.700870000000      13.935500000000       8.445660000000
       228    1        8.506060000000      20.617100000000      10.080400000000
       229    1       20.239600000000       3.011070000000      18.063800000000
       230    1       18.562500000000       0.063834600000      11.406500000000
       231    1       12.905200000000      20.102200000000      16.391200000000
       232    1       18.571700000000      15.692700000000      16.489100000000
       233    1       18.998900000000      20.948100000000      17.814300000000
       234    1       15.351400000000      15.030800000000      14.153800000000
       235    1       11.230000000000       1.858630000000      14.858200000000
       236    1       22.563300000000      19.811400000000      19.615300000000
       237    1       20.396200000000      21.847900000000      21.350700000000
       238    1       21.337500000000      18.879200000000      16.513600000000
       239    1       25.181000000000      19.357500000000      10.115900000000
       240    1       18.534400000000       5.024630000000      20.518700000000
       241    1        3.312170000000      18.887200000000      18.928300000000
       242    1        3.501010000000       2.307640000000      17.776900000000
       243    1       10.603100000000      18.401900000000      18.076100000000
       244    1        5.529780000000       0.378598000000       4.796100000000
       245    1        6.628700000000      16.398100000000      20.830800000000
       246    1        9.006090000000      18.035600000000      13.804000000000
       247    1       16.232900000000      20.795600000000      20.257200000000
       248    1        3.321250000000      10.282400000000       4.444050000000
       249    1       18.234600000000       1.348780000000      20.121000000000
       250    1       21.251800000000       7.957070000000      23.027200000000
       251    1       17.041500000000       4.298810000000       4.613010000000
       252    1        3.705290000000       7.110480000000      21.268700000000
       253    1       27.088900000000      10.451200000000      22.115200000000
       254    1       24.705300000000       7.717210000000      21.656400000000
       255    1       21.990400000000      22.935000000000      17.137600000000
       256    1       14.254100000000       2.229590000000       2.445330000000
       257    1       27.521500000000      22.508500000000      11.629600000000
       258    1       27.119600000000      13.372000000000      18.297600000000
       259    1       20.387300000000       3.703680000000       5.786280000000
       260    1       12.783700000000       0.568472000000      11.624600000000
       261    1        7.017490000000       9.382000000000      17.076600000000
       262    1        8.072810000000      14.617800000000       4.322600000000
       263    1        4.739810000000      16.467000000000       2.919430000000
       264    1        4.228740000000      10.404200000000      14.337100000000
       265    1       16.742400000000      18.926700000000      16.165400000000
       266    1        6.660150000000      17.363900000000       6.342350000000
       267    1       19.231000000000      18.813800000000      22.708900000000
       268    1       19.301300000000       8.894380000000       8.815300000000
       269    1       14.446100000000      13.569900000000       1.954340000000
       270    1        1.659130000000      10.638100000000       0.213780000000
       271    1       10.340100000000       3.327310000000      17.819900000000
       272    1        3.693270000000      14.465400000000       9.511030000000
       273    1        3.679340000000       8.218250000000      11.313500000000
       274    1       13.505400000000       5.770320000000      17.816100000000
       275    1       22.455600000000       4.682540000000      21.838100000000
       276    1       19.220100000000      11.357400000000       6.001530000000
       277    1       14.803800000000       8.626570000000      15.168500000000
       278    1       15.649900000000       7.025670000000      21.306500000000
       279    1       22.366200000000      15.371300000000      16.370300000000
       280    1       16.704500000000       3.844620000000      17.703100000000
       281    1        6.091160000000      19.751500000000      20.667400000000
       282    1       22.660300000000       1.070870000000       0.064279900000
       283    1        1.022710000000      13.656800000000      21.494700000000
       284    1       28.112000000000       0.863426000000      21.184900000000
       285    1       11.712700000000      12.726400000000      23.032200000000
       286    1       14.396700000000      14.687900000000      21.719800000000
       287    1       27.562500000000      17.308500000000      12.629400000000
       288    1       16.766300000000      17.578700000000      10.456500000000
       289    1       17.261700000000       5.757000000000       1.466100000000
       290    1        5.697450000000      11.563000000000      11.034500000000
       291    1       24.559700000000      18.486000000000      14.903200000000
       292    1       18.011100000000       3.424610000000      12.698600000000
       293    1       11.224800000000       1.987810000000       8.844730000000
       294    1       24.094100000000      11.110800000000      19.347500000000
       295    1        3.618730000000      17.453900000000      22.052800000000
       296    1       17.698700000000      19.393300000000       3.203970000000
       297    1       21.064600000000       7.077760000000       5.119520000000
       298    1       17.832000000000      13.499900000000      20.211300000000
       299    1       25.470400000000      13.347900000000       2.969680000000
       300    1       16.285500000000      11.786900000000      16.381800000000
       301    1       16.065100000000       6.366900000000      13.112200000000
       302    1        4.144490000000      17.933000000000      15.523600000000
       303    1       25.817500000000      17.384400000000      18.276400000000
       304    1        8.242160000000      12.064600000000      20.848700000000
       305    1        0.944596000000      21.481500000000      19.333700000000
       306    1       14.000600000000       9.165630000000      18.852500000000
       307    1        6.795130000000       8.442660000000       9.625040000000
       308    1        9.459560000000       2.750570000000      21.518400000000
       309    1        9.569470000000      17.939500000000       3.080210000000
       310    1       15.841500000000       3.039250000000      21.926800000000
       311    1       10.842200000000      10.076300000000      18.997300000000
       312    1       19.977200000000      21.718200000000       5.791860000000
       313    1       21.991400000000      14.968400000000       2.277870000000
       314    1        7.576160000000       2.178930000000       2.031020000000
       315    1       22.057600000000      18.438900000000      11.927500000000
       316    1       13.643800000000      16.581900000000      17.775900000000
       317    1        2.620050000000      17.070100000000       6.945490000000
       318    1        0.959565000000      13.336700000000       6.443920000000
       319    1       12.452200000000      10.572700000000       2.919240000000
       320    1       27.884200000000       1.871830000000      17.600500000000
 
Velocities
 
         1   -0.77566200E+00   0.16422800E+01   0.15948100E+00
         2    0.30696800E+01   0.67205800E+00  -0.14153500E+01
         3   -0.37544700E+00   0.16104000E+01   0.91341400E+00
         4    0.57405100E+00   0.11810300E+01  -0.52194500E+00
         5   -0.18649900E+01  -0.14322100E+01  -0.25301000E+01
         6   -0.28490800E+01  -0.36990200E+01   0.85456900E+00
         7   -0.14173400E+00  -0.98641100E+00  -0.17793900E+01
         8   -0.22754200E+01   0.24145900E+01  -0.14375200E+01
         9    0.27434900E+01  -0.16242300E+01   0.27571700E+00
        10    0.45966600E+00   0.62604100E+00   0.31441900E+01
        11   -0.14766200E+01  -0.12555000E+01  -0.64896700E+00
        12   -0.95393900E+00  -0.16134500E+00  -0.26367100E+00
        13   -0.65748000E-01   0.19581300E+01  -0.11098800E+01
        14   -0.12757100E+01   0.25627700E+01   0.19184400E+00
        15   -0.36727800E+00   0.17977500E+01   0.72799000E+00
        16    0.19532700E+01   0.55976800E+00  -0.25668200E+01
        17   -0.16870800E+01  -0.32725000E+00  -0.48652300E-01
        18    0.92984400E+00  -0.76503800E+00   0.14127700E+01
        19   -0.68902500E+00  -0.15986200E+01  -0.24115700E+00
        20   -0.92390700E+00   0.24410200E+01   0.86497700E+00
        21    0.96183000E-01   0.13018700E+01   0.32527200E+01
        22    0.64763800E+00  -0.89481200E+00  -0.49561900E+00
        23    0.30670800E+01   0.14998200E+01   0.79776000E-01
        24    0.44662400E-03  -0.14835000E+01   0.50808100E+00
        25    0.20332000E+00   0.22853200E+01   0.34296300E+01
        26   -0.27695400E+00  -0.11663700E+01   0.53848500E+00
        27    0.12927300E+01   0.14092900E+01   0.54667700E+00
        28    0.11147600E+01   0.38758800E+00  -0.49299000E-01
        29   -0.74045700E+00   0.19095100E+01   0.17397800E+01
        30   -0.99269300E+00  -0.83506100E+00  -0.75107800E+00
        31   -0.40343200E+00  -0.10332300E+01   0.14826300E+00
        32   -0.90082300E+00   0.22128500E+01   0.20969200E+01
        33   -0.21710500E+01   0.88604400E+00  -0.48422400E+00
        34   -0.16131000E+01  -0.21039100E+01  -0.22123800E+01
        35    0.65112600E+00  -0.17262700E+01   0.15009500E+01
        36   -0.29933500E+01   0.14178000E+01   0.20112900E+01
        37    0.19966300E+01  -0.63921200E+00   0.51199000E+00
        38    0.56648100E-01   0.24909600E+01   0.76123700E+00
        39   -0.29934400E+01  -0.16076200E+01   0.16721000E+01
        40   -0.13771400E+01  -0.21539000E+01  -0.93874400E+00
        41    0.39077700E+00  -0.56842400E+00   0.91270000E+00
        42    0.22902500E+01  -0.10726000E+01   0.71338400E+00
        43    0.59275300E+00  -0.18055100E+01   0.91055800E+00
        44   -0.55061600E+00  -0.51789700E+00   0.12530300E+01
        45    0.25873900E+01  -0.25509500E+01  -0.85082800E+00
        46   -0.15124900E+01   0.82246300E+00   0.29489200E+00
        47    0.95410800E+00   0.80438100E+00   0.10075600E+01
        48   -0.45663500E+00   0.78979100E+00  -0.83664700E+00
        49    0.63740600E+00  -0.16985400E+00  -0.22116700E+01
        50   -0.61307200E+00   0.11530700E+01  -0.35520400E+01
        51   -0.12397000E+01  -0.49327000E+00  -0.16003700E+01
        52    0.24680600E+00  -0.33134600E+00   0.70250700E-02
        53   -0.66558300E+00   0.11159800E+01   0.66783900E-01
        54   -0.12103800E+01  -0.49794200E-01  -0.80815200E-01
        55    0.16376700E+01   0.10954700E+01   0.10945400E+01
        56    0.12411500E+01  -0.32905300E-02  -0.17007300E+01
        57    0.42558900E+00   0.33834700E+01   0.46967100E+00
        58   -0.40951000E+00  -0.17813000E+01   0.13344100E+01
        59    0.18020800E+01  -0.21495700E+01  -0.21562600E+01
        60   -0.39231800E-01   0.37955300E+01  -0.34132200E-01
        61   -0.10338900E+01   0.27073500E+00  -0.58959900E+00
        62    0.12008000E+01   0.13310100E+01  -0.50417100E+00
        63    0.74506800E+00   0.14871400E+01  -0.80899900E+00
        64   -0.26133200E+01  -0.21382900E+01  -0.17744900E+01
        65    0.41645700E+00   0.35569200E+00   0.14785600E+01