LAMMPS (15 Sep 2022)
OMP_NUM_THREADS environment is not set. Defaulting to 1 thread. (src/comm.cpp:98)
  using 1 OpenMP thread(s) per MPI task
variable T equal 94.0

units metal
boundary p p p
atom_style atomic

read_data nve.lmp
Reading data file ...
  orthogonal box = (0 0 0) to (28.90075 23.1206 23.1206)
  1 by 1 by 1 MPI processor grid
  reading atoms ...
  320 atoms
  reading velocities ...
  320 velocities
  read_data CPU = 0.048 seconds

neighbor 0.1 bin
neigh_modify delay 10 check no

pair_style lj/cut 15.0
pair_coeff 1 1 0.0103 3.405 15.0

thermo 1000
thermo_style custom step temp pe ke etotal press density

# Calculate the kinetic energy
compute g2 all rdf 1000
fix 1 all nve
fix temp_1 all ave/time 1 10000 10000 c_thermo_temp file temp.dat
fix g2_1 all ave/time 1 5000000 5000000 c_g2[*] file rdf.dat mode vector

dump 1 all custom 1000 argon.dump id type x y z vx vy vz

run 5000000
Generated 0 of 0 mixed pair_coeff terms from geometric mixing rule
Neighbor list info ...
  update: every = 1 steps, delay = 10 steps, check = no
  max neighbors/atom: 2000, page size: 100000
  master list distance cutoff = 15.1
  ghost atom cutoff = 15.1
  binsize = 7.55, bins = 4 4 4
  2 neighbor lists, perpetual/occasional/extra = 1 1 0
  (1) pair lj/cut, perpetual
      attributes: half, newton on
      pair build: half/bin/atomonly/newton
      stencil: half/bin/3d
      bin: standard
  (2) compute rdf, occasional, copy from (1)
      attributes: half, newton on
      pair build: copy
      stencil: none
      bin: none
Per MPI rank memory allocation (min/avg/max) = 3.975 | 3.975 | 3.975 Mbytes
   Step          Temp          PotEng         KinEng         TotEng         Press         Density    
         0   94.000184     -18.963132      3.8760023     -15.08713       169.48597      1.3740002    
      1000   98.177028     -19.135007      4.0482302     -15.086777      97.646954      1.3740002    
      2000   92.646001     -18.907101      3.8201639     -15.086937      145.35333      1.3740002    
      3000   91.953387     -18.878748      3.7916047     -15.087144      239.09688      1.3740002    
      4000   98.375175     -19.143376      4.0564006     -15.086975      39.288784      1.3740002    
      5000   92.904328     -18.917651      3.8308158     -15.086835      164.49455      1.3740002    
      6000   92.16638      -18.887358      3.8003872     -15.086971      186.23697      1.3740002    
      7000   93.005108     -18.922032      3.8349713     -15.08706       198.18808      1.3740002    
      8000   95.48192      -19.024066      3.9371002     -15.086966      130.64702      1.3740002    
      9000   92.48702      -18.900275      3.8136085     -15.086667      186.56762      1.3740002    
     10000   91.810143     -18.872806      3.7856982     -15.087107      168.17539      1.3740002    
     11000   94.044644     -18.964778      3.8778355     -15.086943      180.10716      1.3740002    
     12000   98.194541     -19.135957      4.0489523     -15.087005     -10.731745      1.3740002    
     13000   92.752971     -18.911641      3.8245747     -15.087066      178.82484      1.3740002    
     14000   91.190388     -18.847034      3.7601432     -15.086891      202.88666      1.3740002    
     15000   95.988053     -19.045099      3.9579701     -15.087129      47.418984      1.3740002    
     16000   96.028682     -19.047193      3.9596453     -15.087547      119.91735      1.3740002    
     17000   92.892826     -18.917169      3.8303415     -15.086827      182.55585      1.3740002    
     18000   92.720697     -18.910015      3.823244      -15.086771      160.52992      1.3740002    
     19000   99.980149     -19.209527      4.1225801     -15.086947      29.235652      1.3740002    
     20000   96.322958     -19.058153      3.9717795     -15.086374      70.729842      1.3740002    
     21000   91.430026     -18.856619      3.7700244     -15.086594      216.66676      1.3740002    
     22000   91.202502     -18.84811       3.7606427     -15.087468      210.20161      1.3740002    
     23000   93.054032     -18.923924      3.8369887     -15.086935      168.66813      1.3740002    
     24000   95.69444      -19.032741      3.9458632     -15.086878      77.599238      1.3740002    
     25000   95.006519     -19.004178      3.9174975     -15.08668       121.26381      1.3740002    
     26000   95.232411     -19.013914      3.9268119     -15.087102      136.55719      1.3740002    
     27000   92.907144     -18.917665      3.8309319     -15.086734      131.46859      1.3740002    
     28000   93.97225      -18.961781      3.8748505     -15.08693       126.36924      1.3740002    
     29000   97.00664      -19.08696       3.9999704     -15.08699       60.79818       1.3740002    
     30000   90.787105     -18.830472      3.7435143     -15.086957      229.49988      1.3740002    
     31000   96.074215     -19.048975      3.9615229     -15.087452      160.57718      1.3740002    
     32000   94.603467     -18.987684      3.9008781     -15.086806      136.40522      1.3740002    
     33000   94.447753     -18.981365      3.8944573     -15.086908      156.39035      1.3740002    
     34000   92.756117     -18.911626      3.8247045     -15.086922      175.44883      1.3740002    
     35000   98.373008     -19.143536      4.0563112     -15.087225     -8.7832428      1.3740002    
     36000   94.0202       -18.963295      3.8768276     -15.086467      162.98086      1.3740002    
     37000   96.130599     -19.05042       3.9638478     -15.086572      169.33457      1.3740002    
     38000   93.394331     -18.937789      3.8510206     -15.086768      232.6009       1.3740002    
     39000   93.387707     -18.938136      3.8507474     -15.087388      156.41355      1.3740002    
     40000   95.818769     -19.037989      3.9509898     -15.086999      128.43481      1.3740002    
     41000   93.959163     -18.961236      3.8743108     -15.086925      142.68224      1.3740002    
     42000   91.851382     -18.874093      3.7873986     -15.086695      155.41101      1.3740002    
     43000   91.90027      -18.876631      3.7894145     -15.087216      208.10768      1.3740002    
     44000   98.757716     -19.158982      4.0721743     -15.086808      10.519246      1.3740002    
     45000   93.575779     -18.945626      3.8585024     -15.087123      167.26015      1.3740002    
     46000   96.82         -19.079308      3.9922745     -15.087034      124.35508      1.3740002    
     47000   92.870174     -18.916333      3.8294075     -15.086926      188.83491      1.3740002    
     48000   93.019836     -18.92271       3.8355786     -15.087131      170.86776      1.3740002    
     49000   94.678577     -18.99137       3.9039752     -15.087395      135.61423      1.3740002    
     50000   96.490266     -19.065862      3.9786783     -15.087184      114.98801      1.3740002    
     51000   96.707999     -19.074771      3.9876563     -15.087115      32.551624      1.3740002    
     52000   95.566269     -19.02776       3.9405782     -15.087181      110.63324      1.3740002    
     53000   94.171529     -18.970081      3.8830675     -15.087014      126.97008      1.3740002    
     54000   99.101215     -19.173386      4.0863381     -15.087048      29.048269      1.3740002    
     55000   93.280905     -18.933035      3.8463436     -15.086691      197.47463      1.3740002    
     56000   91.305976     -18.852036      3.7649093     -15.087127      200.49624      1.3740002    
     57000   93.009955     -18.922254      3.8351712     -15.087083      201.8355       1.3740002    
     58000   99.460348     -19.188189      4.1011466     -15.087042      35.243145      1.3740002    
     59000   97.191689     -19.095017      4.0076007     -15.087417      105.77538      1.3740002    
     60000   94.167258     -18.970284      3.8828914     -15.087392      204.60415      1.3740002    
     61000   96.765115     -19.077517      3.9900114     -15.087505      139.54043      1.3740002    
     62000   95.875319     -19.04051       3.9533216     -15.087188      106.52483      1.3740002    
     63000   95.62836      -19.029748      3.9431385     -15.086609      94.07466       1.3740002    
     64000   92.359932     -18.894884      3.8083681     -15.086516      201.60199      1.3740002    
     65000   94.064098     -18.966027      3.8786377     -15.087389      147.43826      1.3740002    
     66000   98.082246     -19.131389      4.044322      -15.087067      78.32641       1.3740002    
     67000   96.533815     -19.067878      3.980474      -15.087404      107.01763      1.3740002    
     68000   96.120943     -19.050328      3.9634496     -15.086878      112.39497      1.3740002    
     69000   99.699324     -19.19739       4.1110006     -15.08639      -15.095976      1.3740002    
     70000   97.678206     -19.114657      4.0276618     -15.086995      72.602422      1.3740002    
     71000   96.425818     -19.062653      3.9760209     -15.086632      153.30285      1.3740002    
     72000   91.994461     -18.879882      3.7932984     -15.086584      238.24017      1.3740002    
     73000   97.026579     -19.087527      4.0007926     -15.086735      84.749232      1.3740002    
     74000   91.019173     -18.840516      3.7530833     -15.087432      157.29527      1.3740002    
     75000   95.477101     -19.023885      3.9369015     -15.086984      148.74451      1.3740002    
     76000   91.984512     -18.879624      3.7928881     -15.086736      205.95629      1.3740002    
     77000   91.790668     -18.871934      3.7848952     -15.087039      148.69156      1.3740002    
     78000   96.181535     -19.052856      3.9659481     -15.086908      111.42467      1.3740002    
     79000   96.283141     -19.05751       3.9701377     -15.087372      81.35727       1.3740002    
     80000   91.296192     -18.851106      3.7645059     -15.0866        174.13351      1.3740002    
     81000   96.285767     -19.056999      3.970246      -15.086753      62.507977      1.3740002    
     82000   89.115978     -18.762048      3.674607      -15.087441      244.38141      1.3740002    
     83000   97.790065     -19.119369      4.0322742     -15.087095      45.626872      1.3740002    
     84000   90.596617     -18.823124      3.7356597     -15.087464      187.04458      1.3740002    
     85000   98.467516     -19.14744       4.0602082     -15.087232      80.388503      1.3740002    
     86000   95.688228     -19.032675      3.9456071     -15.087068      72.489716      1.3740002    
     87000   97.314796     -19.100085      4.012677      -15.087408      42.637794      1.3740002    
     88000   95.324373     -19.017645      3.9306039     -15.087041      109.94039      1.3740002    
     89000   88.661848     -18.742762      3.6558814     -15.086881      323.55238      1.3740002    
     90000   89.416552     -18.774131      3.6870009     -15.087131      236.98366      1.3740002    
     91000   95.477412     -19.023898      3.9369143     -15.086983      176.26139      1.3740002    
     92000   97.346786     -19.101279      4.013996      -15.087283      100.80431      1.3740002    
     93000   94.075054     -18.966407      3.8790895     -15.087317      135.82235      1.3740002    
     94000   97.29669      -19.098839      4.0119304     -15.086909      49.87088       1.3740002    
     95000   97.224382     -19.096065      4.0089488     -15.087117      83.654533      1.3740002    
     96000   92.652817     -18.907298      3.820445      -15.086853      214.10346      1.3740002    
     97000   95.597694     -19.029         3.941874      -15.087126      148.84832      1.3740002    
     98000   96.750646     -19.076637      3.9894148     -15.087222      84.433265      1.3740002    
     99000   93.675734     -18.949146      3.8626239     -15.086522      175.22575      1.3740002    
    100000   95.255496     -19.014429      3.9277638     -15.086666      118.01391      1.3740002    
    101000   91.415776     -18.856585      3.7694369     -15.087148      249.41364      1.3740002    
    102000   94.146989     -18.96876       3.8820557     -15.086704      142.42115      1.3740002    
    103000   97.398875     -19.103066      4.0161439     -15.086922      61.017717      1.3740002    
    104000   92.981975     -18.921156      3.8340175     -15.087139      96.661422      1.3740002    
    105000   89.534396     -18.778915      3.6918601     -15.087055      225.07926      1.3740002    
    106000   93.341211     -18.935992      3.8488302     -15.087162      162.83943      1.3740002    
    107000   95.447433     -19.0226        3.9356782     -15.086922      163.16615      1.3740002    
    108000   95.85496      -19.039706      3.9524821     -15.087224      90.779139      1.3740002    
    109000   94.504013     -18.983454      3.8967772     -15.086676      109.37471      1.3740002    
    110000   95.628686     -19.030258      3.9431519     -15.087106      112.63568      1.3740002    
    111000   90.548678     -18.82078       3.7336829     -15.087097      197.76166      1.3740002    
    112000   97.76915      -19.118532      4.0314118     -15.08712       33.030487      1.3740002    
    113000   95.100426     -19.008593      3.9213696     -15.087223      128.50882      1.3740002    
    114000   96.829839     -19.079659      3.9926803     -15.086979      62.384011      1.3740002    
    115000   93.159359     -18.928528      3.8413317     -15.087196      165.58713      1.3740002    
    116000   97.204921     -19.095456      4.0081464     -15.08731       63.385695      1.3740002    
    117000   96.222311     -19.054411      3.9676295     -15.086781      113.83071      1.3740002    
    118000   94.623098     -18.989092      3.9016875     -15.087405      105.50981      1.3740002    
    119000   96.384822     -19.061556      3.9743304     -15.087226      70.977141      1.3740002    
    120000   95.852078     -19.039539      3.9523633     -15.087176      100.16045      1.3740002    
    121000   96.085526     -19.049258      3.9619893     -15.087269      48.82282       1.3740002    
    122000   94.038787     -18.965114      3.877594      -15.08752       195.00812      1.3740002    
    123000   92.32241      -18.894057      3.806821      -15.087236      243.42996      1.3740002    
    124000   97.463792     -19.106185      4.0188206     -15.087364      93.949778      1.3740002    
    125000   93.931569     -18.960707      3.873173      -15.087534      136.367        1.3740002    
    126000   94.041778     -18.964887      3.8777174     -15.087169      130.15041      1.3740002    
    127000   92.813814     -18.91437       3.8270835     -15.087287      146.34457      1.3740002    
    128000   96.429243     -19.063177      3.9761621     -15.087015      131.37921      1.3740002    
    129000   92.969511     -18.920857      3.8335035     -15.087354      155.5727       1.3740002    
    130000   94.180136     -18.970326      3.8834224     -15.086904      139.50376      1.3740002    
    131000   91.921988     -18.877692      3.79031       -15.087382      198.17974      1.3740002    
    132000   94.602149     -18.988223      3.9008237     -15.087399      105.60703      1.3740002    
    133000   90.565869     -18.820966      3.7343918     -15.086574      232.8398       1.3740002    
    134000   94.977185     -19.003454      3.9162879     -15.087166      79.050204      1.3740002    
    135000   97.474464     -19.106405      4.0192607     -15.087144      49.35485       1.3740002    
    136000   97.831523     -19.121071      4.0339837     -15.087087      22.978287      1.3740002    
    137000   98.109722     -19.132732      4.0454549     -15.087277      62.573875      1.3740002    
    138000   95.247731     -19.014296      3.9274436     -15.086853      101.5132       1.3740002    
    139000   92.00947      -18.880488      3.7939172     -15.086571      147.12692      1.3740002    
    140000   93.709166     -18.950823      3.8640025     -15.08682       133.5981       1.3740002    
    141000   97.117124     -19.091551      4.0045262     -15.087025      83.623834      1.3740002    
    142000   95.431007     -19.021908      3.9350008     -15.086907      136.90799      1.3740002    
    143000   95.593427     -19.02853       3.9416981     -15.086832      161.3186       1.3740002    
    144000   96.019147     -19.045815      3.9592522     -15.086563      108.52852      1.3740002    
    145000   93.122215     -18.926726      3.8398002     -15.086926      209.25949      1.3740002    
    146000   94.656523     -18.990065      3.9030658     -15.086999      60.020165      1.3740002    
    147000   94.65716      -18.990671      3.903092      -15.087579      116.53434      1.3740002    
    148000   95.072884     -19.007493      3.920234      -15.087259      104.95495      1.3740002    
    149000   93.786083     -18.954515      3.8671741     -15.087341      111.33289      1.3740002    
    150000   88.444547     -18.733723      3.6469213     -15.086801      220.2667       1.3740002    
    151000   96.2269       -19.054813      3.9678187     -15.086995      86.865775      1.3740002    
    152000   99.168814     -19.176359      4.0891255     -15.087233      16.096858      1.3740002    
    153000   94.559627     -18.985859      3.8990704     -15.086789      131.30954      1.3740002    
    154000   93.179096     -18.92887       3.8421456     -15.086725      208.78276      1.3740002    
    155000   98.41701      -19.144868      4.0581256     -15.086742      93.639686      1.3740002    
    156000   91.063619     -18.841546      3.754916      -15.08663       224.65584      1.3740002    
    157000   96.3309       -19.059308      3.972107      -15.087201      54.152968      1.3740002    
    158000   96.659859     -19.072492      3.9856713     -15.086821      102.11446      1.3740002    
    159000   94.894376     -18.99945       3.9128734     -15.086576      144.99864      1.3740002    
    160000   95.925335     -19.042479      3.955384      -15.087095      84.41671       1.3740002    
    161000   90.243096     -18.808179      3.7210826     -15.087097      258.56603      1.3740002    
    162000   92.697776     -18.909537      3.8222988     -15.087238      170.82034      1.3740002    
    163000   94.614725     -18.988504      3.9013423     -15.087161      64.032342      1.3740002    
    164000   96.075412     -19.049041      3.9615722     -15.087468      88.632558      1.3740002    
    165000   99.658962     -19.19633       4.1093363     -15.086993      44.578191      1.3740002    
    166000   98.160731     -19.13483       4.0475582     -15.087272      74.889506      1.3740002    
    167000   95.614791     -19.029979      3.942579      -15.087401      82.688164      1.3740002    
    168000   90.654666     -18.825577      3.7380533     -15.087523      199.12394      1.3740002    
    169000   92.325792     -18.893784      3.8069605     -15.086824      210.63982      1.3740002    
    170000   90.54797      -18.820583      3.7336537     -15.086929      273.44194      1.3740002    
    171000   96.054519     -19.047598      3.9607107     -15.086887      95.049428      1.3740002    
    172000   96.08183      -19.048822      3.9618369     -15.086985      86.656296      1.3740002    
    173000   98.465386     -19.147465      4.0601204     -15.087345      39.865951      1.3740002    
    174000   94.4863       -18.983356      3.8960468     -15.08731       162.33838      1.3740002    
    175000   91.893005     -18.876037      3.7891149     -15.086922      206.24892      1.3740002    
    176000   95.291316     -19.01601       3.9292408     -15.086769      131.67272      1.3740002    
    177000   95.040985     -19.006131      3.9189187     -15.087212      137.47599      1.3740002    
    178000   96.388251     -19.062105      3.9744718     -15.087633      89.892949      1.3740002    
    179000   96.61851      -19.071514      3.9839663     -15.087547      96.196001      1.3740002    
    180000   98.45723      -19.147056      4.0597841     -15.087272      47.611187      1.3740002    
    181000   98.286882     -19.139746      4.0527599     -15.086986      23.625664      1.3740002    
    182000   95.99379      -19.045586      3.9582066     -15.08738       83.75304       1.3740002    
    183000   100.52544     -19.231531      4.1450646     -15.086466      46.73881       1.3740002    
    184000   97.183676     -19.094039      4.0072703     -15.086769      94.86937       1.3740002    
    185000   91.029442     -18.840206      3.7535068     -15.086699      233.28076      1.3740002    
    186000   93.333223     -18.935219      3.8485008     -15.086718      109.78633      1.3740002    
    187000   93.170909     -18.92887       3.841808      -15.087062      135.05675      1.3740002    
    188000   95.735177     -19.034913      3.947543      -15.08737       85.669002      1.3740002    
    189000   95.786939     -19.037045      3.9496773     -15.087368      116.02995      1.3740002    
    190000   92.416822     -18.897722      3.810714      -15.087008      182.12567      1.3740002    
    191000   90.955546     -18.83812       3.7504597     -15.08766       206.49496      1.3740002    
    192000   95.221457     -19.013071      3.9263602     -15.086711      151.48516      1.3740002    
    193000   94.364217     -18.978174      3.8910128     -15.087161      170.52685      1.3740002    
    194000   92.219255     -18.88988       3.8025675     -15.087313      146.68636      1.3740002    
    195000   98.194236     -19.136387      4.0489398     -15.087447      13.687462      1.3740002    
    196000   95.568663     -19.027735      3.9406769     -15.087058      45.05688       1.3740002    
    197000   92.640623     -18.906588      3.8199422     -15.086646      157.03497      1.3740002    
    198000   96.096781     -19.049503      3.9624533     -15.08705       30.820558      1.3740002    
    199000   98.13006      -19.133214      4.0462936     -15.08692       57.235337      1.3740002    
    200000   100.01684     -19.211156      4.1240929     -15.087063     -37.077548      1.3740002    
    201000   89.311663     -18.769915      3.6826759     -15.087239      249.72699      1.3740002    
    202000   96.735987     -19.075612      3.9888104     -15.086802      58.278379      1.3740002    
    203000   93.633956     -18.947532      3.8609012     -15.08663       110.27899      1.3740002    
    204000   92.557812     -18.903537      3.8165276     -15.08701       226.20864      1.3740002    
    205000   89.182368     -18.764375      3.6773445     -15.087031      226.27667      1.3740002    
    206000   94.466834     -18.981741      3.8952441     -15.086497      79.335155      1.3740002    
    207000   94.453173     -18.981315      3.8946808     -15.086634      177.70942      1.3740002    
    208000   93.827646     -18.956345      3.8688879     -15.087457      130.06319      1.3740002    
    209000   94.396482     -18.979951      3.8923432     -15.087608      117.84194      1.3740002    
    210000   98.26312      -19.138492      4.0517801     -15.086712      77.787881      1.3740002    
    211000   93.311593     -18.934406      3.847609      -15.086797      136.70607      1.3740002    
    212000   92.062412     -18.883382      3.7961002     -15.087282      217.59386      1.3740002    
    213000   92.517757     -18.902133      3.8148759     -15.087257      180.26587      1.3740002    
    214000   95.271844     -19.015657      3.9284379     -15.087219      77.442095      1.3740002    
    215000   97.879817     -19.123248      4.035975      -15.087273      90.359307      1.3740002    
    216000   93.722204     -18.951826      3.8645401     -15.087286      149.84978      1.3740002    
    217000   92.1131       -18.885515      3.7981903     -15.087325      147.32248      1.3740002    
    218000   94.261902     -18.973037      3.886794      -15.086243      192.20873      1.3740002    
    219000   95.819678     -19.037585      3.9510273     -15.086558      141.54365      1.3740002    
    220000   94.101639     -18.967357      3.8801857     -15.087171      104.43377      1.3740002    
    221000   95.635686     -19.030401      3.9434406     -15.08696       83.988284      1.3740002    
    222000   93.809933     -18.955219      3.8681575     -15.087061      129.90979      1.3740002    
    223000   92.552312     -18.903827      3.8163007     -15.087527      155.87124      1.3740002    
    224000   98.055119     -19.130282      4.0432034     -15.087078      66.769033      1.3740002    
    225000   95.654628     -19.031086      3.9442216     -15.086865      73.86223       1.3740002    
    226000   96.532113     -19.067496      3.9804038     -15.087092      53.613656      1.3740002    
    227000   95.343549     -19.01853       3.9313946     -15.087135      110.57926      1.3740002    
    228000   91.144239     -18.845726      3.7582403     -15.087485      198.97676      1.3740002    
    229000   92.964572     -18.920328      3.8332999     -15.087028      144.69848      1.3740002    
    230000   93.743393     -18.952207      3.8654138     -15.086793      102.22357      1.3740002    
    231000   96.769305     -19.077134      3.9901842     -15.08695       98.953237      1.3740002    
    232000   92.194709     -18.887891      3.8015554     -15.086336      189.39629      1.3740002    
    233000   93.672006     -18.949556      3.8624702     -15.087085      178.05133      1.3740002    
    234000   92.086308     -18.883914      3.7970856     -15.086828      165.89768      1.3740002    
    235000   96.412679     -19.062188      3.9754791     -15.086709      120.93159      1.3740002    
    236000   94.045437     -18.965139      3.8778683     -15.087271      134.36437      1.3740002    
    237000   93.721445     -18.951929      3.8645088     -15.087421      150.55017      1.3740002    
    238000   100.76616     -19.242501      4.1549904     -15.087511     -48.129526      1.3740002    
    239000   93.630171     -18.947605      3.8607452     -15.086859      84.102678      1.3740002    
    240000   91.148891     -18.845897      3.7584321     -15.087465      202.40602      1.3740002    
    241000   88.362732     -18.730147      3.6435477     -15.0866        292.31393      1.3740002    
    242000   97.167178     -19.092898      4.0065901     -15.086308      94.021928      1.3740002    
    243000   98.963752     -19.16802       4.08067       -15.08735       63.716311      1.3740002    
    244000   94.018385     -18.963762      3.8767528     -15.08701       149.5569       1.3740002    
    245000   98.373196     -19.143883      4.056319      -15.087564      53.090665      1.3740002    
    246000   93.896891     -18.95881       3.8717431     -15.087067      231.47289      1.3740002    
    247000   92.9826       -18.921383      3.8340432     -15.087339      178.53693      1.3740002    
    248000   96.472815     -19.064849      3.9779587     -15.08689       62.674969      1.3740002    
    249000   90.859442     -18.833557      3.746497      -15.08706       203.75476      1.3740002    
    250000   98.029745     -19.12942       4.0421572     -15.087263      26.619713      1.3740002    
    251000   96.64911      -19.07224       3.9852281     -15.087011      161.92399      1.3740002    
    252000   95.541339     -19.026753      3.9395503     -15.087203      129.31752      1.3740002    
    253000   92.402946     -18.897517      3.8101418     -15.087375      150.2063       1.3740002    
    254000   91.155379     -18.845596      3.7586996     -15.086897      224.18991      1.3740002    
    255000   94.420791     -18.981115      3.8933456     -15.08777       110.2353       1.3740002    
    256000   95.005255     -19.004878      3.9174454     -15.087433      128.28739      1.3740002    
    257000   98.432946     -19.146274      4.0587827     -15.087491      31.924539      1.3740002    
    258000   93.350405     -18.936339      3.8492093     -15.08713       164.03769      1.3740002    
    259000   99.813732     -19.203245      4.115718      -15.087527     -22.542459      1.3740002    
    260000   94.522885     -18.985111      3.8975553     -15.087556      119.33839      1.3740002    
    261000   96.964759     -19.085533      3.9982435     -15.087289      99.974446      1.3740002    
    262000   92.410546     -18.897509      3.8104552     -15.087054      203.58971      1.3740002    
    263000   93.883865     -18.958254      3.871206      -15.087048      131.61599      1.3740002    
    264000   94.506169     -18.983782      3.8968661     -15.086916      151.83519      1.3740002    
    265000   96.453831     -19.064018      3.9771759     -15.086842      60.412026      1.3740002    
    266000   90.883533     -18.834272      3.7474904     -15.086782      226.31326      1.3740002    
    267000   97.595206     -19.110734      4.0242394     -15.086494      58.424438      1.3740002    
    268000   95.097326     -19.008248      3.9212418     -15.087006      112.75234      1.3740002    
    269000   92.738474     -18.910546      3.823977      -15.086569      192.96312      1.3740002    
    270000   97.327247     -19.099993      4.0131904     -15.086803      67.889264      1.3740002    
    271000   91.484423     -18.859302      3.7722675     -15.087034      252.93578      1.3740002    
    272000   91.284511     -18.851282      3.7640243     -15.087258      198.70399      1.3740002    
    273000   89.885075     -18.793471      3.7063199     -15.087151      254.3715       1.3740002    
    274000   93.523732     -18.943378      3.8563563     -15.087022      141.63269      1.3740002    
    275000   89.675637     -18.784977      3.697684      -15.087293      245.53123      1.3740002    
    276000   88.551202     -18.738311      3.6513191     -15.086992      288.79901      1.3740002    
    277000   95.742471     -19.034886      3.9478437     -15.087042      106.17681      1.3740002    
    278000   98.71558      -19.157127      4.0704369     -15.08669       77.421335      1.3740002    
    279000   95.581147     -19.028196      3.9411917     -15.087005      131.62127      1.3740002    
    280000   98.062374     -19.130757      4.0435026     -15.087254      33.284896      1.3740002    
    281000   94.520141     -18.984571      3.8974422     -15.087129      147.33923      1.3740002    
    282000   96.61586      -19.071134      3.9838571     -15.087277      94.548749      1.3740002    
    283000   90.752838     -18.829265      3.7421013     -15.087164      256.30758      1.3740002    
    284000   98.675358     -19.155518      4.0687784     -15.08674       50.500971      1.3740002    
    285000   99.730173     -19.199893      4.1122726     -15.08762      -15.751911      1.3740002    
    286000   97.284631     -19.098723      4.0114331     -15.087289      69.577556      1.3740002    
    287000   97.157126     -19.093513      4.0061756     -15.087337      66.131715      1.3740002    
    288000   99.390933     -19.18564       4.0982844     -15.087356      23.607441      1.3740002    
    289000   93.732683     -18.951736      3.8649722     -15.086764      168.29832      1.3740002    
    290000   98.092249     -19.131759      4.0447345     -15.087024      54.664654      1.3740002    
    291000   93.924575     -18.959779      3.8728846     -15.086894      143.15304      1.3740002    
    292000   99.534666     -19.191564      4.104211      -15.087353      93.097829      1.3740002    
    293000   92.654102     -18.907197      3.820498      -15.086699      120.81885      1.3740002    
    294000   99.047595     -19.17128       4.0841272     -15.087153      91.225103      1.3740002    
    295000   94.854443     -18.998623      3.9112268     -15.087396      157.0706       1.3740002    
    296000   93.541734     -18.943903      3.8570986     -15.086805      189.43392      1.3740002    
    297000   94.658854     -18.989996      3.9031619     -15.086834      119.03828      1.3740002    
    298000   92.539768     -18.902655      3.8157835     -15.086871      105.53083      1.3740002    
    299000   96.127288     -19.050942      3.9637113     -15.08723       27.695017      1.3740002    
    300000   91.229708     -18.848718      3.7617645     -15.086954      152.4108       1.3740002    
    301000   99.455205     -19.188282      4.1009345     -15.087347      38.061881      1.3740002    
    302000   96.21217      -19.05409       3.9672113     -15.086878      127.67821      1.3740002    
    303000   96.59639      -19.069808      3.9830542     -15.086753      142.66369      1.3740002    
    304000   94.908603     -19.000682      3.9134601     -15.087222      124.82837      1.3740002    
    305000   99.569564     -19.193129      4.1056501     -15.087479      20.093569      1.3740002    
    306000   93.636046     -18.947975      3.8609874     -15.086988      195.29292      1.3740002    
    307000   96.811425     -19.07874       3.991921      -15.086819      71.6784        1.3740002    
    308000   98.073015     -19.13068       4.0439413     -15.086739      33.588838      1.3740002    
    309000   94.945176     -19.001635      3.9149681     -15.086667      110.77826      1.3740002    
    310000   97.534009     -19.108263      4.021716      -15.086547      93.836451      1.3740002    
    311000   96.156506     -19.05217       3.9649161     -15.087254      113.38474      1.3740002    
    312000   96.74924      -19.077354      3.9893568     -15.087998      94.379937      1.3740002    
    313000   96.037079     -19.046899      3.9599916     -15.086907      80.729532      1.3740002    
    314000   95.503654     -19.024854      3.9379963     -15.086858      90.074523      1.3740002    
    315000   94.297487     -18.975455      3.8882613     -15.087193      150.80191      1.3740002    
    316000   92.020483     -18.881477      3.7943713     -15.087106      200.93966      1.3740002    
    317000   96.480621     -19.064973      3.9782806     -15.086693      49.058007      1.3740002    
    318000   93.530744     -18.943197      3.8566454     -15.086551      163.69403      1.3740002    
    319000   92.121593     -18.885872      3.7985405     -15.087332      170.8757       1.3740002    
    320000   89.456734     -18.775401      3.6886577     -15.086743      181.12963      1.3740002    
    321000   92.112425     -18.885034      3.7981625     -15.086871      161.24399      1.3740002    
    322000   94.515329     -18.984198      3.8972438     -15.086954      123.78024      1.3740002    
    323000   95.54107      -19.026053      3.9395392     -15.086514      77.180599      1.3740002    
    324000   96.035049     -19.046463      3.9599079     -15.086555      87.406741      1.3740002    
    325000   96.619458     -19.070886      3.9840054     -15.08688       187.5967       1.3740002    
    326000   95.522096     -19.025508      3.9387568     -15.086751      110.58202      1.3740002    
    327000   93.007466     -18.922066      3.8350686     -15.086997      155.64509      1.3740002    
    328000   93.67217      -18.949478      3.862477      -15.087001      166.22488      1.3740002    
    329000   94.213807     -18.971746      3.8848108     -15.086935      140.34921      1.3740002    
    330000   90.323163     -18.811589      3.7243841     -15.087205      233.4536       1.3740002    
    331000   94.128661     -18.968395      3.8812999     -15.087095      125.04854      1.3740002    
    332000   95.598401     -19.028824      3.9419031     -15.086921      140.35426      1.3740002    
    333000   94.233903     -18.972839      3.8856394     -15.087199      180.49424      1.3740002    
    334000   96.939888     -19.084283      3.997218      -15.087065      96.478784      1.3740002    
    335000   94.4441       -18.981858      3.8943067     -15.087551      144.93018      1.3740002    
    336000   90.549427     -18.820811      3.7337138     -15.087097      207.92308      1.3740002    
    337000   94.832618     -18.99758       3.9103269     -15.087253      98.211058      1.3740002    
    338000   94.847883     -18.997824      3.9109563     -15.086868      122.86063      1.3740002    
    339000   92.868249     -18.916131      3.8293281     -15.086803      178.09716      1.3740002    
    340000   97.230658     -19.095961      4.0092076     -15.086754      35.279721      1.3740002    
    341000   91.281471     -18.850619      3.7638989     -15.08672       161.31589      1.3740002    
    342000   97.984514     -19.126915      4.0402921     -15.086623      40.474003      1.3740002    
    343000   95.792426     -19.036486      3.9499036     -15.086582      94.540203      1.3740002    
    344000   95.5065       -19.025145      3.9381137     -15.087032      129.89129      1.3740002    
    345000   96.732607     -19.075341      3.988671      -15.08667       56.182312      1.3740002    
    346000   88.436842     -18.733577      3.6466035     -15.086974      262.28315      1.3740002    
    347000   99.751836     -19.200445      4.1131658     -15.087279     -6.6533107      1.3740002    
    348000   94.268644     -18.974218      3.887072      -15.087146      83.175574      1.3740002    
    349000   91.972118     -18.879228      3.7923771     -15.086851      201.77337      1.3740002    
    350000   92.13147      -18.885579      3.7989478     -15.086632      212.55482      1.3740002    
    351000   92.828899     -18.914916      3.8277055     -15.08721       145.4156       1.3740002    
    352000   89.767543     -18.788766      3.7014736     -15.087292      280.06981      1.3740002    
    353000   94.428825     -18.980273      3.8936769     -15.086597      134.85007      1.3740002    
    354000   95.330145     -19.018333      3.9308419     -15.087491      130.40076      1.3740002    
    355000   93.345758     -18.935921      3.8490177     -15.086904      161.80585      1.3740002    
    356000   95.151303     -19.010444      3.9234675     -15.086977      100.27615      1.3740002    
    357000   93.741052     -18.952205      3.8653173     -15.086887      187.93221      1.3740002    
    358000   91.269295     -18.849713      3.7633968     -15.086316      153.13714      1.3740002    
    359000   98.234055     -19.137397      4.0505817     -15.086816      69.39961       1.3740002    
    360000   94.548569     -18.985349      3.8986144     -15.086735      90.520611      1.3740002    
    361000   92.027077     -18.882031      3.7946432     -15.087388      184.05261      1.3740002    
    362000   97.766663     -19.11842       4.0313092     -15.08711       26.802838      1.3740002    
    363000   95.632028     -19.030725      3.9432897     -15.087435      162.53816      1.3740002    
    364000   93.759726     -18.953156      3.8660873     -15.087069      144.35721      1.3740002    
    365000   96.039137     -19.047286      3.9600764     -15.08721       95.393231      1.3740002    
    366000   98.729847     -19.158098      4.0710252     -15.087073      14.251918      1.3740002    
    367000   92.088803     -18.884253      3.7971884     -15.087064      165.86162      1.3740002    
    368000   94.708251     -18.99244       3.9051987     -15.087242      115.34123      1.3740002    
    369000   90.562808     -18.821401      3.7342656     -15.087136      209.78144      1.3740002    
    370000   98.489143     -19.148185      4.0611        -15.087085      59.280132      1.3740002    
    371000   99.688161     -19.197687      4.1105403     -15.087147      104.017        1.3740002    
    372000   95.834267     -19.03818       3.9516288     -15.086551      92.283791      1.3740002    
    373000   91.628054     -18.865597      3.7781899     -15.087407      153.77234      1.3740002    
    374000   90.933967     -18.836979      3.7495699     -15.087409      198.44874      1.3740002    
    375000   95.260341     -19.014931      3.9279636     -15.086967      127.21108      1.3740002    
    376000   93.795508     -18.954237      3.8675627     -15.086675      178.75515      1.3740002    
    377000   93.811468     -18.955108      3.8682208     -15.086887      113.516        1.3740002    
    378000   97.173983     -19.094064      4.0068707     -15.087194      99.951693      1.3740002    
    379000   92.664005     -18.908234      3.8209063     -15.087328      185.7022       1.3740002    
    380000   89.197254     -18.765514      3.6779583     -15.087556      261.45335      1.3740002    
    381000   93.136747     -18.927995      3.8403994     -15.087596      129.63599      1.3740002    
    382000   94.463844     -18.982052      3.8951209     -15.086931      152.19836      1.3740002    
    383000   94.502821     -18.983653      3.896728      -15.086925      102.41085      1.3740002    
    384000   94.612508     -18.988651      3.9012509     -15.0874        86.750027      1.3740002    
    385000   90.558168     -18.820962      3.7340742     -15.086887      222.95638      1.3740002    
    386000   90.122026     -18.803401      3.7160904     -15.08731       271.68814      1.3740002    
    387000   99.161734     -19.175449      4.0888336     -15.086616      92.524927      1.3740002    
    388000   92.948458     -18.919592      3.8326354     -15.086956      152.53022      1.3740002    
    389000   95.586384     -19.028658      3.9414076     -15.087251      62.124067      1.3740002    
    390000   95.374655     -19.019723      3.9326772     -15.087046      145.21038      1.3740002    
    391000   96.905322     -19.083065      3.9957927     -15.087273      69.133159      1.3740002    
    392000   94.341311     -18.976729      3.8900683     -15.08666       100.04111      1.3740002    
    393000   95.302229     -19.016878      3.9296908     -15.087187      123.67231      1.3740002    
    394000   94.690106     -18.991815      3.9044505     -15.087365      135.88701      1.3740002    
    395000   98.603401     -19.152499      4.0658113     -15.086688      5.0480728      1.3740002    
    396000   95.825288     -19.038254      3.9512586     -15.086995      95.504829      1.3740002    
    397000   95.403031     -19.021246      3.9338473     -15.087399      145.76723      1.3740002    
    398000   93.453572     -18.940776      3.8534633     -15.087312      192.50509      1.3740002    
    399000   94.222373     -18.972115      3.885164      -15.086951      173.04796      1.3740002    
    400000   93.336735     -18.935447      3.8486457     -15.086802      212.54359      1.3740002    
    401000   89.586161     -18.78094       3.6939945     -15.086946      293.53931      1.3740002    
    402000   96.942526     -19.084396      3.9973268     -15.08707       66.564401      1.3740002    
    403000   95.309954     -19.017433      3.9300093     -15.087424      156.92342      1.3740002    
    404000   95.939159     -19.043054      3.955954      -15.0871        106.41799      1.3740002    
    405000   93.108845     -18.926106      3.8392488     -15.086857      176.18432      1.3740002    
    406000   95.845407     -19.038888      3.9520882     -15.086799      96.676391      1.3740002    
    407000   88.951621     -18.754792      3.6678299     -15.086962      234.43849      1.3740002    
    408000   92.27585      -18.891988      3.8049011     -15.087087      145.22022      1.3740002    
    409000   90.098222     -18.802695      3.7151088     -15.087586      173.4287       1.3740002    
    410000   87.78205      -18.706254      3.6196038     -15.08665       280.25471      1.3740002    
    411000   94.224025     -18.972101      3.8852322     -15.086869      170.23804      1.3740002    
    412000   95.976202     -19.044461      3.9574814     -15.086979      80.532055      1.3740002    
    413000   95.062439     -19.006637      3.9198033     -15.086834      146.38446      1.3740002    
    414000   97.334703     -19.100591      4.0134978     -15.087093      33.758977      1.3740002    
    415000   95.013565     -19.004511      3.917788      -15.086723      86.174999      1.3740002    
    416000   97.870164     -19.122995      4.035577      -15.087418      56.740467      1.3740002    
    417000   92.246306     -18.890764      3.8036829     -15.087081      157.31586      1.3740002    
    418000   93.500651     -18.942073      3.8554045     -15.086668      186.17366      1.3740002    
    419000   100.03061     -19.211887      4.1246608     -15.087227      6.1718373      1.3740002    
    420000   93.247747     -18.931983      3.8449763     -15.087006      150.58443      1.3740002    
    421000   96.450572     -19.06402       3.9770416     -15.086979      111.09512      1.3740002    
    422000   95.171459     -19.011544      3.9242986     -15.087245      160.68908      1.3740002    
    423000   95.454245     -19.023129      3.935959      -15.08717       76.00329       1.3740002    
    424000   96.125097     -19.050674      3.9636209     -15.087053      130.07615      1.3740002    
    425000   93.65333      -18.949009      3.8617001     -15.087309      70.194908      1.3740002    
    426000   97.340309     -19.100321      4.013729      -15.086592      13.587308      1.3740002    
    427000   91.867734     -18.874972      3.7880729     -15.086899      175.06464      1.3740002    
    428000   93.837423     -18.956133      3.869291      -15.086842      203.65562      1.3740002    
    429000   96.067958     -19.048235      3.9612649     -15.08697       56.959224      1.3740002    
    430000   92.726185     -18.910859      3.8234703     -15.087389      124.26887      1.3740002    
    431000   93.509461     -18.942685      3.8557678     -15.086917      161.00972      1.3740002    
    432000   95.561428     -19.027187      3.9403786     -15.086808      132.60625      1.3740002    
    433000   93.765219     -18.953193      3.8663137     -15.086879      117.50591      1.3740002    
    434000   95.540111     -19.026146      3.9394996     -15.086647      145.47174      1.3740002    
    435000   103.53836     -19.35616       4.2692993     -15.086861     -105.96644      1.3740002    
    436000   98.699392     -19.15668       4.0697694     -15.086911      15.241694      1.3740002    
    437000   94.861674     -18.998517      3.9115249     -15.086992      111.79008      1.3740002    
    438000   93.266715     -18.932177      3.8457584     -15.086418      205.38073      1.3740002    
    439000   95.765571     -19.035694      3.9487962     -15.086898      114.87013      1.3740002    
    440000   93.153443     -18.927872      3.8410878     -15.086784      199.26587      1.3740002    
    441000   100.57111     -19.234211      4.1469479     -15.087263     -19.044677      1.3740002    
    442000   91.596734     -18.863571      3.7768985     -15.086672      211.23622      1.3740002    
    443000   94.237733     -18.972753      3.8857974     -15.086956      75.825483      1.3740002    
    444000   95.255981     -19.0145        3.9277838     -15.086717      165.75109      1.3740002    
    445000   92.055288     -18.882742      3.7958065     -15.086935      153.51026      1.3740002    
    446000   95.526531     -19.026018      3.9389397     -15.087078      74.293088      1.3740002    
    447000   88.32725      -18.728841      3.6420846     -15.086756      263.16931      1.3740002    
    448000   95.40505      -19.021144      3.9339305     -15.087214      55.510247      1.3740002    
    449000   97.610222     -19.111385      4.0248586     -15.086527      94.044851      1.3740002    
    450000   93.234407     -18.93146       3.8444262     -15.087034      171.96335      1.3740002    
    451000   92.304949     -18.892877      3.806101      -15.086776      164.12376      1.3740002    
    452000   95.690036     -19.032754      3.9456816     -15.087072      87.981907      1.3740002    
    453000   90.068853     -18.800873      3.7138979     -15.086975      216.46386      1.3740002    
    454000   100.12192     -19.215564      4.1284258     -15.087138      35.258039      1.3740002    
    455000   89.916373     -18.794835      3.7076105     -15.087224      240.81538      1.3740002    
    456000   94.686656     -18.991034      3.9043083     -15.086726      97.638645      1.3740002    
    457000   94.38195      -18.978922      3.891744      -15.087178      148.49775      1.3740002    
    458000   96.965157     -19.085186      3.9982599     -15.086926      70.985727      1.3740002    
    459000   91.927926     -18.877107      3.7905549     -15.086552      182.00219      1.3740002    
    460000   96.244927     -19.055665      3.968562      -15.087103      59.44717       1.3740002    
    461000   98.136911     -19.134105      4.0465761     -15.087529      47.391592      1.3740002    
    462000   91.698058     -18.868016      3.7810765     -15.08694       170.87605      1.3740002    
    463000   100.49493     -19.230734      4.1438065     -15.086928     -23.613189      1.3740002    
    464000   94.152435     -18.96975       3.8822802     -15.08747       158.06561      1.3740002    
    465000   93.838739     -18.956472      3.8693453     -15.087127      189.89052      1.3740002    
    466000   96.020255     -19.046393      3.9592979     -15.087095      142.9685       1.3740002    
    467000   92.396227     -18.897256      3.8098648     -15.087392      136.37474      1.3740002    
    468000   93.314596     -18.93446       3.8477328     -15.086727      203.489        1.3740002    
    469000   98.842566     -19.16288       4.075673      -15.087207      61.679497      1.3740002    
    470000   93.514036     -18.943064      3.8559565     -15.087108      168.36822      1.3740002    
    471000   94.30228      -18.975477      3.8884589     -15.087018      163.98076      1.3740002    
    472000   96.339325     -19.059731      3.9724544     -15.087277      75.501982      1.3740002    
    473000   97.865549     -19.122586      4.0353867     -15.087199      33.043621      1.3740002    
    474000   96.750896     -19.076993      3.9894251     -15.087568      39.019375      1.3740002    
    475000   96.386472     -19.061565      3.9743985     -15.087167      94.832698      1.3740002    
    476000   95.375065     -19.019942      3.9326941     -15.087248      210.49861      1.3740002    
    477000   98.779781     -19.160161      4.0730841     -15.087077      19.610079      1.3740002    
    478000   97.571917     -19.110469      4.0232791     -15.08719       4.961551       1.3740002    
    479000   94.039397     -18.964611      3.8776192     -15.086992      115.86601      1.3740002    
    480000   95.567148     -19.026684      3.9406144     -15.086069      120.71114      1.3740002    
    481000   91.680914     -18.867421      3.7803695     -15.087052      186.84097      1.3740002    
    482000   96.259858     -19.055563      3.9691776     -15.086385      76.478108      1.3740002    
    483000   94.479352     -18.98327       3.8957603     -15.08751       60.24957       1.3740002    
    484000   99.016913     -19.169626      4.082862      -15.086764      35.162348      1.3740002    
    485000   94.538123     -18.985358      3.8981837     -15.087175      117.03411      1.3740002    
    486000   95.02477      -19.005163      3.9182501     -15.086913      135.2052       1.3740002    
    487000   94.641459     -18.989568      3.9024446     -15.087123      114.10217      1.3740002    
    488000   98.596784     -19.152943      4.0655384     -15.087405      30.023033      1.3740002    
    489000   94.825334     -18.996769      3.9100265     -15.086742      105.63461      1.3740002    
    490000   91.969579     -18.879195      3.7922723     -15.086923      188.18597      1.3740002    
    491000   90.777794     -18.829739      3.7431303     -15.086608      226.89536      1.3740002    
    492000   98.592917     -19.152507      4.065379      -15.087128      30.677565      1.3740002    
    493000   99.19407      -19.176973      4.0901669     -15.086806      0.51944955     1.3740002    
    494000   96.770715     -19.077572      3.9902423     -15.087329      140.58891      1.3740002    
    495000   94.598131     -18.987457      3.900658      -15.086799      133.84974      1.3740002    
    496000   92.050156     -18.882393      3.7955949     -15.086798      213.67178      1.3740002    
    497000   91.276406     -18.850183      3.7636901     -15.086493      218.12914      1.3740002    
    498000   90.603189     -18.822533      3.7359306     -15.086602      248.07322      1.3740002    
    499000   93.785226     -18.953941      3.8671387     -15.086802      164.29122      1.3740002    
    500000   94.978416     -19.003385      3.9163387     -15.087046      82.997006      1.3740002    
    501000   89.490397     -18.776975      3.6900458     -15.086929      251.76688      1.3740002    
    502000   97.803831     -19.119795      4.0328418     -15.086953      55.491111      1.3740002    
    503000   94.386045     -18.978777      3.8919129     -15.086864      139.03882      1.3740002    
    504000   92.537706     -18.902779      3.8156985     -15.087081      204.95464      1.3740002    
    505000   89.424722     -18.774449      3.6873378     -15.087111      217.26538      1.3740002    
    506000   96.801797     -19.078644      3.991524      -15.08712       105.04263      1.3740002    
    507000   91.317399     -18.852218      3.7653804     -15.086838      185.36119      1.3740002    
    508000   91.327337     -18.852793      3.7657902     -15.087003      206.36903      1.3740002    
    509000   97.417675     -19.10406       4.0169191     -15.087141      23.077165      1.3740002    
    510000   100.97443     -19.250784      4.1635781     -15.087206     -25.224733      1.3740002    
    511000   98.340271     -19.14175       4.0549614     -15.086788      62.486421      1.3740002    
    512000   98.644245     -19.15474       4.0674954     -15.087245      31.385397      1.3740002    
    513000   95.462476     -19.023744      3.9362984     -15.087445      82.488731      1.3740002    
    514000   99.968851     -19.209438      4.1221142     -15.087324      9.9096147      1.3740002    
    515000   92.046332     -18.882779      3.7954372     -15.087342      192.4197       1.3740002    
    516000   94.339608     -18.976851      3.8899981     -15.086853      112.07082      1.3740002    
    517000   97.417517     -19.104532      4.0169126     -15.087619      43.273283      1.3740002    
    518000   94.212366     -18.971762      3.8847514     -15.087011      160.18603      1.3740002    
    519000   94.637828     -18.989153      3.9022949     -15.086858      107.91859      1.3740002    
    520000   91.273114     -18.850981      3.7635543     -15.087427      235.25086      1.3740002    
    521000   93.884083     -18.958399      3.871215      -15.087184      159.40692      1.3740002    
    522000   90.266926     -18.809495      3.7220652     -15.087429      222.51996      1.3740002    
    523000   97.620916     -19.112838      4.0252995     -15.087538      98.0089        1.3740002    
    524000   94.933997     -19.001954      3.9145071     -15.087447      153.83888      1.3740002    
    525000   95.426777     -19.022004      3.9348264     -15.087177      135.04636      1.3740002    
    526000   94.222943     -18.972533      3.8851875     -15.087346      156.46485      1.3740002    
    527000   96.562966     -19.068132      3.981676      -15.086456      79.370453      1.3740002    
    528000   93.670483     -18.949116      3.8624074     -15.086708      89.179862      1.3740002    
    529000   90.434097     -18.815984      3.7289583     -15.087026      174.00205      1.3740002    
    530000   94.684789     -18.991009      3.9042313     -15.086777      75.014872      1.3740002    
    531000   91.282809     -18.85068       3.7639541     -15.086726      175.19439      1.3740002    
    532000   98.429289     -19.145216      4.0586319     -15.086584      29.337554      1.3740002    
    533000   90.105306     -18.802349      3.715401      -15.086948      177.30894      1.3740002    
    534000   92.898642     -18.918019      3.8305813     -15.087438      153.34613      1.3740002    
    535000   91.846051     -18.873654      3.7871788     -15.086475      205.43137      1.3740002    
    536000   95.780071     -19.036375      3.9493941     -15.086981      73.473293      1.3740002    
    537000   95.700179     -19.032963      3.9460999     -15.086863      121.41936      1.3740002    
    538000   91.463656     -18.858517      3.7714111     -15.087106      247.77688      1.3740002    
    539000   98.4865       -19.147756      4.060991      -15.086765      69.672471      1.3740002    
    540000   98.19604      -19.136028      4.0490142     -15.087014      22.046397      1.3740002    
    541000   94.085539     -18.966643      3.8795218     -15.087121      188.35875      1.3740002    
    542000   93.947748     -18.961203      3.8738402     -15.087363      167.16385      1.3740002    
    543000   93.931903     -18.960528      3.8731868     -15.087341      110.05349      1.3740002    
    544000   95.874813     -19.040621      3.9533007     -15.08732       104.64209      1.3740002    
    545000   93.762921     -18.95323       3.866219      -15.087011      121.39347      1.3740002    
    546000   91.283081     -18.851704      3.7639653     -15.087739      196.13209      1.3740002    
    547000   98.029623     -19.129451      4.0421521     -15.087299      62.743071      1.3740002    
    548000   95.504296     -19.025134      3.9380228     -15.087112      115.01027      1.3740002    
    549000   95.430499     -19.021801      3.9349799     -15.086821      199.52594      1.3740002    
    550000   97.159968     -19.093022      4.0062928     -15.086729      60.468992      1.3740002    
    551000   91.61296      -18.864777      3.7775675     -15.08721       213.46303      1.3740002    
    552000   93.398021     -18.938205      3.8511727     -15.087032      186.21176      1.3740002    
    553000   91.233667     -18.849254      3.7619278     -15.087327      273.77979      1.3740002    
    554000   94.712097     -18.992361      3.9053573     -15.087003      77.860715      1.3740002    
    555000   96.199711     -19.05354       3.9666976     -15.086842      67.99404       1.3740002    
    556000   94.655936     -18.990468      3.9030416     -15.087427      145.09898      1.3740002    
    557000   97.61149      -19.111289      4.0249108     -15.086378      84.492193      1.3740002    
    558000   94.421675     -18.980349      3.8933821     -15.086967      137.66601      1.3740002    
    559000   96.591535     -19.070127      3.982854      -15.087273      164.45521      1.3740002    
    560000   93.297212     -18.933869      3.847016      -15.086853      117.15233      1.3740002    
    561000   96.633669     -19.071526      3.9845914     -15.086935      55.806802      1.3740002    
    562000   98.501206     -19.148571      4.0615974     -15.086974      12.636572      1.3740002    
    563000   96.136511     -19.051328      3.9640916     -15.087236      120.76685      1.3740002    
    564000   95.078486     -19.007447      3.920465      -15.086982      143.16421      1.3740002    
    565000   98.123947     -19.1333        4.0460415     -15.087259      48.877375      1.3740002    
    566000   93.74429      -18.951794      3.8654508     -15.086343      163.51881      1.3740002    
    567000   92.575833     -18.904986      3.8172706     -15.087715      176.85114      1.3740002    
    568000   91.53842      -18.861523      3.774494      -15.087029      163.59666      1.3740002    
    569000   92.252687     -18.890376      3.803946      -15.08643       125.1431       1.3740002    
    570000   93.192392     -18.930005      3.8426938     -15.087311      123.23591      1.3740002    
    571000   95.161617     -19.010688      3.9238928     -15.086795      179.55474      1.3740002    
    572000   94.933863     -19.001307      3.9145016     -15.086806      141.50247      1.3740002    
    573000   91.935658     -18.878175      3.7908737     -15.087301      209.02709      1.3740002    
    574000   94.019932     -18.964167      3.8768166     -15.087351      160.69115      1.3740002    
    575000   94.312561     -18.9758        3.8888829     -15.086917      154.82098      1.3740002    
    576000   93.308067     -18.934235      3.8474636     -15.086772      129.34748      1.3740002    
    577000   90.078213     -18.801287      3.7142838     -15.087004      213.17876      1.3740002    
    578000   97.662347     -19.113978      4.0270079     -15.08697       84.198794      1.3740002    
    579000   97.919828     -19.124919      4.0376249     -15.087294      39.211985      1.3740002    
    580000   96.985639     -19.086014      3.9991045     -15.086909      58.171733      1.3740002    
    581000   91.787164     -18.87184       3.7847506     -15.087089      199.03241      1.3740002    
    582000   92.502724     -18.901219      3.8142561     -15.086963      250.72235      1.3740002    
    583000   97.015463     -19.08684       4.0003343     -15.086506      70.66262       1.3740002    
    584000   93.056165     -18.923986      3.8370766     -15.086909      127.04273      1.3740002    
    585000   90.370424     -18.813229      3.7263328     -15.086896      216.7152       1.3740002    
    586000   95.574694     -19.02819       3.9409256     -15.087264      92.11802       1.3740002    
    587000   90.836529     -18.832872      3.7455522     -15.08732       208.88228      1.3740002    
    588000   90.125964     -18.803555      3.7162528     -15.087302      250.68268      1.3740002    
    589000   91.961873     -18.879246      3.7919546     -15.087291      219.56764      1.3740002    
    590000   98.054788     -19.130372      4.0431898     -15.087182      32.393324      1.3740002    
    591000   91.133149     -18.845013      3.757783      -15.08723       177.28051      1.3740002    
    592000   93.101344     -18.926177      3.8389395     -15.087237      131.15634      1.3740002    
    593000   101.85077     -19.286875      4.1997131     -15.087162     -2.028239       1.3740002    
    594000   94.158089     -18.969744      3.8825134     -15.087231      94.038674      1.3740002    
    595000   94.270467     -18.973981      3.8871471     -15.086834      146.03016      1.3740002    
    596000   94.198728     -18.971202      3.8841891     -15.087013      131.62642      1.3740002    
    597000   87.940779     -18.712981      3.6261489     -15.086832      267.11545      1.3740002    
    598000   95.687404     -19.032452      3.9455731     -15.086878      104.08419      1.3740002    
    599000   99.522447     -19.190412      4.1037072     -15.086705      21.061982      1.3740002    
    600000   95.055985     -19.006682      3.9195372     -15.087145      107.13141      1.3740002    
    601000   95.624417     -19.030169      3.9429759     -15.087193      120.63479      1.3740002    
    602000   99.017407     -19.170119      4.0828824     -15.087236      16.484294      1.3740002    
    603000   95.883246     -19.040572      3.9536485     -15.086924      64.298944      1.3740002    
    604000   94.1857       -18.97053       3.8836519     -15.086878      162.7057       1.3740002    
    605000   100.13511     -19.216494      4.1289699     -15.087524     -39.99973       1.3740002    
    606000   94.550458     -18.986439      3.8986923     -15.087747      167.72363      1.3740002    
    607000   92.116854     -18.885311      3.7983451     -15.086966      204.99553      1.3740002    
    608000   94.305275     -18.975219      3.8885824     -15.086636      139.00533      1.3740002    
    609000   94.204335     -18.971449      3.8844203     -15.087028      119.16912      1.3740002    
    610000   93.066675     -18.924319      3.83751       -15.086809      182.29713      1.3740002    
    611000   90.869031     -18.833763      3.7468924     -15.086871      252.43854      1.3740002    
    612000   98.383931     -19.144137      4.0567617     -15.087375      51.25858       1.3740002    
    613000   93.172601     -18.929297      3.8418777     -15.087419      114.24442      1.3740002    
    614000   96.230275     -19.055017      3.9679578     -15.087059      126.32839      1.3740002    
    615000   94.167562     -18.96999       3.882904      -15.087086      116.21167      1.3740002    
    616000   94.970692     -19.003333      3.9160202     -15.087313      92.907637      1.3740002    
    617000   96.977536     -19.085284      3.9987704     -15.086513      67.62772       1.3740002    
    618000   98.661422     -19.15543       4.0682037     -15.087226      55.666176      1.3740002    
    619000   94.466008     -18.98202       3.8952101     -15.08681       192.32448      1.3740002    
    620000   93.225805     -18.93102       3.8440716     -15.086949      189.32264      1.3740002    
    621000   93.900857     -18.958242      3.8719066     -15.086336      182.37053      1.3740002    
    622000   97.395626     -19.103062      4.0160099     -15.087053      59.523907      1.3740002    
    623000   91.246518     -18.849592      3.7624577     -15.087134      201.79863      1.3740002    
    624000   90.983356     -18.838746      3.7516064     -15.087139      187.43448      1.3740002    
    625000   96.20161      -19.053483      3.9667759     -15.086707      99.062333      1.3740002    
    626000   95.688659     -19.032591      3.9456248     -15.086966      133.14898      1.3740002    
    627000   96.92986      -19.083668      3.9968045     -15.086863      39.690989      1.3740002    
    628000   92.188425     -18.888431      3.8012962     -15.087134      161.4219       1.3740002    
    629000   95.814543     -19.038499      3.9508155     -15.087684      89.536348      1.3740002    
    630000   96.998608     -19.086098      3.9996393     -15.086458      67.081428      1.3740002    
    631000   94.994706     -19.004412      3.9170104     -15.087402      105.16534      1.3740002    
    632000   94.781189     -18.995237      3.9082063     -15.087031      77.028699      1.3740002    
    633000   93.799639     -18.95495       3.867733      -15.087217      152.49721      1.3740002    
    634000   94.293792     -18.974663      3.8881089     -15.086555      103.94354      1.3740002    
    635000   95.919233     -19.042303      3.9551323     -15.087171      106.26996      1.3740002    
    636000   91.019054     -18.839928      3.7530784     -15.08685       244.94173      1.3740002    
    637000   96.376064     -19.061211      3.9739693     -15.087242      102.96716      1.3740002    
    638000   94.872404     -18.999069      3.9119674     -15.087101      124.46606      1.3740002    
    639000   98.768059     -19.159006      4.0726008     -15.086406      52.381605      1.3740002    
    640000   92.181891     -18.88803       3.8010268     -15.087003      233.80585      1.3740002    
    641000   92.289779     -18.892723      3.8054755     -15.087248      150.94555      1.3740002    
    642000   101.41746     -19.268779      4.1818461     -15.086933     -49.137566      1.3740002    
    643000   98.749599     -19.158969      4.0718396     -15.08713       6.4714142      1.3740002    
    644000   99.419301     -19.186304      4.0994541     -15.08685       32.053138      1.3740002    
    645000   96.9006       -19.082104      3.995598      -15.086506      96.183183      1.3740002    
    646000   96.719794     -19.075326      3.9881426     -15.087184      88.574344      1.3740002    
    647000   99.234263     -19.179327      4.0918242     -15.087503      38.357341      1.3740002    
    648000   96.138788     -19.051287      3.9641855     -15.087102      143.50453      1.3740002    
    649000   93.63164      -18.948204      3.8608058     -15.087399      176.25769      1.3740002    
    650000   95.326047     -19.017736      3.9306729     -15.087063      113.00209      1.3740002    
    651000   92.469563     -18.899882      3.8128887     -15.086993      167.39225      1.3740002    
    652000   97.729053     -19.117179      4.0297584     -15.08742       54.309319      1.3740002    
    653000   94.10088      -18.966971      3.8801544     -15.086816      178.90681      1.3740002    
    654000   92.617935     -18.906104      3.8190066     -15.087097      171.45066      1.3740002    
    655000   95.857972     -19.039667      3.9526063     -15.087061      56.712014      1.3740002    
    656000   94.258029     -18.973649      3.8866343     -15.087014      132.8469       1.3740002    
    657000   97.814131     -19.120199      4.0332665     -15.086933      22.842459      1.3740002    
    658000   94.678286     -18.991262      3.9039631     -15.087299      159.78239      1.3740002    
    659000   97.819962     -19.120983      4.033507      -15.087476      72.09243       1.3740002    
    660000   90.442601     -18.816003      3.729309      -15.086694      190.74137      1.3740002    
    661000   99.410184     -19.186102      4.0990782     -15.087023      61.816972      1.3740002    
    662000   92.194073     -18.888252      3.8015291     -15.086722      174.65656      1.3740002    
    663000   98.043247     -19.129394      4.0427139     -15.08668       68.61251       1.3740002    
    664000   98.921511     -19.165539      4.0789282     -15.086611      17.016984      1.3740002    
    665000   93.773055     -18.953746      3.8666369     -15.08711       142.52268      1.3740002    
    666000   93.321618     -18.934991      3.8480223     -15.086968      154.83012      1.3740002    
    667000   89.786867     -18.789145      3.7022704     -15.086874      242.25974      1.3740002    
    668000   92.531423     -18.902523      3.8154394     -15.087083      152.9224       1.3740002    
    669000   99.89538      -19.206524      4.1190847     -15.087439      18.889239      1.3740002    
    670000   90.543734     -18.820965      3.7334791     -15.087486      209.02965      1.3740002    
    671000   92.275952     -18.891744      3.8049053     -15.086839      127.08735      1.3740002    
    672000   93.79032      -18.954678      3.8673488     -15.08733       194.51238      1.3740002    
    673000   90.893975     -18.835326      3.7479209     -15.087405      220.21151      1.3740002    
    674000   98.128748     -19.133145      4.0462395     -15.086906      47.845535      1.3740002    
    675000   92.001374     -18.880556      3.7935834     -15.086972      198.81617      1.3740002    
    676000   98.712998     -19.157151      4.0703304     -15.086821      39.895425      1.3740002    
    677000   92.519316     -18.901857      3.8149402     -15.086916      163.43344      1.3740002    
    678000   93.114783     -18.926958      3.8394937     -15.087464      153.56416      1.3740002    
    679000   94.197668     -18.971201      3.8841453     -15.087055      256.2977       1.3740002    
    680000   96.889544     -19.081706      3.9951421     -15.086563      77.679739      1.3740002    
    681000   92.89417      -18.917707      3.8303969     -15.08731       190.41386      1.3740002    
    682000   95.372148     -19.019326      3.9325738     -15.086752      83.989359      1.3740002    
    683000   94.679848     -18.99141       3.9040275     -15.087382      130.98526      1.3740002    
    684000   92.649742     -18.907437      3.8203182     -15.087118      129.10454      1.3740002    
    685000   96.039757     -19.047132      3.960102      -15.08703       99.375053      1.3740002    
    686000   99.792255     -19.201689      4.1148325     -15.086857      20.627514      1.3740002    
    687000   97.667177     -19.114954      4.027207      -15.087747      18.450002      1.3740002    
    688000   95.155678     -19.01078       3.9236479     -15.087132      87.699095      1.3740002    
    689000   92.649953     -18.907335      3.8203269     -15.087009      180.21659      1.3740002    
    690000   92.193435     -18.888551      3.8015028     -15.087048      179.23709      1.3740002    
    691000   93.425267     -18.939352      3.8522962     -15.087056      177.9838       1.3740002    
    692000   91.754676     -18.87053       3.783411      -15.087119      201.75779      1.3740002    
    693000   94.895387     -18.999804      3.9129151     -15.086888      143.34865      1.3740002    
    694000   97.235157     -19.096527      4.0093931     -15.087134      36.723659      1.3740002    
    695000   93.073351     -18.924667      3.8377853     -15.086882      123.7247       1.3740002    
    696000   92.592441     -18.905337      3.8179555     -15.087381      151.10876      1.3740002    
    697000   94.499252     -18.983929      3.8965808     -15.087348      97.962286      1.3740002    
    698000   89.69503      -18.785492      3.6984837     -15.087009      227.33145      1.3740002    
    699000   99.518023     -19.190395      4.1035248     -15.08687       33.792305      1.3740002    
    700000   97.259279     -19.097503      4.0103878     -15.087115      53.847566      1.3740002    
    701000   95.306744     -19.017208      3.929877      -15.087331      91.796155      1.3740002    
    702000   95.019112     -19.005389      3.9180168     -15.087372      139.75857      1.3740002    
    703000   93.575047     -18.946052      3.8584722     -15.08758       162.37654      1.3740002    
    704000   93.417153     -18.93881       3.8519616     -15.086849      151.18358      1.3740002    
    705000   97.144058     -19.092652      4.0056368     -15.087015      98.675027      1.3740002    
    706000   89.534119     -18.779371      3.6918486     -15.087523      314.52809      1.3740002    
    707000   94.811732     -18.996584      3.9094656     -15.087119      110.89679      1.3740002    
    708000   96.679291     -19.072992      3.9864726     -15.086519      92.492597      1.3740002    
    709000   90.540792     -18.81961       3.7333578     -15.086252      223.73156      1.3740002    
    710000   92.201301     -18.888795      3.8018272     -15.086968      243.00963      1.3740002    
    711000   99.86034      -19.204907      4.1176399     -15.087267      33.019516      1.3740002    
    712000   92.190006     -18.888596      3.8013615     -15.087235      153.53801      1.3740002    
    713000   96.231334     -19.05523       3.9680015     -15.087229      69.006855      1.3740002    
    714000   96.462467     -19.064565      3.977532      -15.087033      73.409247      1.3740002    
    715000   95.18043      -19.012014      3.9246685     -15.087346      121.35036      1.3740002    
    716000   94.089254     -18.967003      3.879675      -15.087328      128.39067      1.3740002    
    717000   92.93102      -18.918204      3.8319164     -15.086288      184.04143      1.3740002    
    718000   94.82838      -18.997268      3.9101521     -15.087116      131.13129      1.3740002    
    719000   95.538685     -19.02618       3.9394408     -15.086739      142.43057      1.3740002    
    720000   89.913864     -18.795239      3.707507      -15.087732      238.82834      1.3740002    
    721000   98.064306     -19.130028      4.0435823     -15.086445      35.515544      1.3740002    
    722000   99.96555      -19.209242      4.1219781     -15.087264      29.926044      1.3740002    
    723000   93.947614     -18.960456      3.8738346     -15.086622      122.64846      1.3740002    
    724000   96.39926      -19.062459      3.9749258     -15.087533      62.571341      1.3740002    
    725000   94.281257     -18.974429      3.8875921     -15.086837      151.51472      1.3740002    
    726000   92.127471     -18.885455      3.7987829     -15.086672      201.09422      1.3740002    
    727000   86.695203     -18.661668      3.5747888     -15.086879      286.26619      1.3740002    
    728000   95.642113     -19.030268      3.9437056     -15.086563      139.59286      1.3740002    
    729000   91.61643      -18.864937      3.7777106     -15.087226      246.01982      1.3740002    
    730000   97.210436     -19.095712      4.0083738     -15.087338      23.500532      1.3740002    
    731000   94.423964     -18.980858      3.8934764     -15.087382      152.94457      1.3740002    
    732000   101.48152     -19.272243      4.1844875     -15.087755     -37.700395      1.3740002    
    733000   96.103628     -19.049875      3.9627357     -15.087139      108.9636       1.3740002    
    734000   97.637117     -19.11322       4.0259675     -15.087252      57.552562      1.3740002    
    735000   96.282394     -19.056705      3.9701069     -15.086598      134.238        1.3740002    
    736000   97.838499     -19.121479      4.0342713     -15.087208      50.488166      1.3740002    
    737000   96.499155     -19.066243      3.9790448     -15.087198      99.771147      1.3740002    
    738000   97.239042     -19.096252      4.0095533     -15.086699      40.33691       1.3740002    
    739000   92.655189     -18.907557      3.8205428     -15.087014      185.11873      1.3740002    
    740000   90.504721     -18.819113      3.7318704     -15.087242      194.63303      1.3740002    
    741000   93.56724      -18.945757      3.8581503     -15.087607      104.64437      1.3740002    
    742000   94.104697     -18.967177      3.8803118     -15.086866      113.06995      1.3740002    
    743000   94.949362     -19.002295      3.9151407     -15.087154      125.30477      1.3740002    
    744000   94.44923      -18.981354      3.8945182     -15.086835      112.24549      1.3740002    
    745000   92.484123     -18.900571      3.813489      -15.087082      147.81452      1.3740002    
    746000   93.176381     -18.929359      3.8420336     -15.087326      111.54625      1.3740002    
    747000   99.378166     -19.185082      4.0977579     -15.087325      57.600227      1.3740002    
    748000   98.269682     -19.139322      4.0520507     -15.087271     -22.711106      1.3740002    
    749000   95.774551     -19.036231      3.9491665     -15.087064      105.70287      1.3740002    
    750000   95.478599     -19.02376       3.9369632     -15.086796      91.932318      1.3740002    
    751000   91.833487     -18.873642      3.7866608     -15.086981      193.03685      1.3740002    
    752000   96.901729     -19.082632      3.9956446     -15.086988      77.175012      1.3740002    
    753000   93.991592     -18.962813      3.875648      -15.087165      108.44615      1.3740002    
    754000   93.321671     -18.935354      3.8480245     -15.08733       165.74796      1.3740002    
    755000   96.212711     -19.054178      3.9672336     -15.086944      55.586667      1.3740002    
    756000   96.550418     -19.067887      3.9811586     -15.086729      43.262125      1.3740002    
    757000   94.952798     -19.00276       3.9152824     -15.087477      126.92654      1.3740002    
    758000   90.151485     -18.804533      3.7173051     -15.087228      213.57368      1.3740002    
    759000   95.217533     -19.012707      3.9261985     -15.086508      128.4554       1.3740002    
    760000   91.539803     -18.861476      3.774551      -15.086925      156.80175      1.3740002    
    761000   93.019687     -18.923047      3.8355725     -15.087474      189.25714      1.3740002    
    762000   96.003009     -19.045403      3.9585867     -15.086816      150.61092      1.3740002    
    763000   98.611135     -19.152913      4.0661302     -15.086782      52.907317      1.3740002    
    764000   94.633043     -18.988738      3.9020976     -15.08664       122.28899      1.3740002    
    765000   95.415968     -19.021217      3.9343807     -15.086836      134.32409      1.3740002    
    766000   95.467987     -19.023202      3.9365257     -15.086676      72.874546      1.3740002    
[...]
   4816000   99.237469     -19.17928       4.0919564     -15.087324     -9.7732899      1.3740002    
   4817000   97.753701     -19.117713      4.0307748     -15.086938      96.817919      1.3740002    
   4818000   90.51354      -18.819369      3.732234      -15.087135      228.51195      1.3740002    
   4819000   98.269039     -19.138661      4.0520242     -15.086637      72.891919      1.3740002    
   4820000   93.980861     -18.961754      3.8752055     -15.086549      161.95412      1.3740002    
   4821000   91.218841     -18.848466      3.7613164     -15.087149      175.67179      1.3740002    
   4822000   97.050403     -19.088566      4.001775      -15.086791      81.779727      1.3740002    
   4823000   95.909383     -19.041369      3.9547262     -15.086643      79.027498      1.3740002    
   4824000   101.32547     -19.264565      4.1780531     -15.086512      26.958879      1.3740002    
   4825000   97.307279     -19.099114      4.012367      -15.086747      115.79313      1.3740002    
   4826000   98.619846     -19.153632      4.0664894     -15.087143      40.756818      1.3740002    
   4827000   93.489118     -18.942044      3.854929      -15.087115      199.24837      1.3740002    
   4828000   95.664913     -19.03173       3.9446457     -15.087084      95.256735      1.3740002    
   4829000   95.564437     -19.02761       3.9405027     -15.087108      99.36008       1.3740002    
   4830000   93.394237     -18.937892      3.8510167     -15.086875      171.98495      1.3740002    
   4831000   94.369589     -18.978426      3.8912343     -15.087191      177.9317       1.3740002    
   4832000   94.078442     -18.966443      3.8792292     -15.087214      153.23623      1.3740002    
   4833000   94.327073     -18.976173      3.8894812     -15.086691      104.51361      1.3740002    
   4834000   93.605743     -18.946596      3.8597379     -15.086858      145.50295      1.3740002    
   4835000   94.643766     -18.989705      3.9025398     -15.087165      105.30722      1.3740002    
   4836000   93.379403     -18.93728       3.850405      -15.086875      132.14992      1.3740002    
   4837000   93.419997     -18.939155      3.8520789     -15.087076      135.39186      1.3740002    
   4838000   96.431719     -19.063526      3.9762642     -15.087262      145.08118      1.3740002    
   4839000   97.945133     -19.126144      4.0386683     -15.087476      62.398391      1.3740002    
   4840000   97.131625     -19.092381      4.0051241     -15.087257      35.889176      1.3740002    
   4841000   97.590622     -19.111629      4.0240504     -15.087578      51.083561      1.3740002    
   4842000   92.927352     -18.918808      3.8317652     -15.087043      202.88702      1.3740002    
   4843000   91.151371     -18.845791      3.7585344     -15.087257      221.70781      1.3740002    
   4844000   98.709574     -19.157401      4.0701892     -15.087212      14.062586      1.3740002    
   4845000   95.77726      -19.036622      3.9492782     -15.087344      91.044964      1.3740002    
   4846000   95.799336     -19.037292      3.9501885     -15.087103      144.15815      1.3740002    
   4847000   92.190217     -18.888658      3.8013701     -15.087287      165.73035      1.3740002    
   4848000   96.399043     -19.062078      3.9749168     -15.087161      152.15318      1.3740002    
   4849000   94.782706     -18.995239      3.9082688     -15.08697       134.24759      1.3740002    
   4850000   91.15921      -18.846248      3.7588576     -15.08739       177.98686      1.3740002    
   4851000   88.632601     -18.741819      3.6546755     -15.087143      295.66625      1.3740002    
   4852000   95.697966     -19.032609      3.9460086     -15.0866        90.245708      1.3740002    
   4853000   101.09098     -19.255358      4.1683841     -15.086974     -1.0610817      1.3740002    
   4854000   95.538714     -19.025922      3.939442      -15.08648       129.67368      1.3740002    
   4855000   93.333366     -18.93539       3.8485068     -15.086883      131.25043      1.3740002    
   4856000   96.224645     -19.054663      3.9677257     -15.086937      94.77158       1.3740002    
   4857000   96.750566     -19.076523      3.9894115     -15.087112      73.498283      1.3740002    
   4858000   92.77084      -18.91214       3.8253116     -15.086828      201.90895      1.3740002    
   4859000   96.927476     -19.083446      3.9967062     -15.08674       98.803618      1.3740002    
   4860000   90.976604     -18.838511      3.751328      -15.087183      185.26151      1.3740002    
   4861000   92.325092     -18.894094      3.8069316     -15.087163      169.87496      1.3740002    
   4862000   94.852284     -18.998261      3.9111378     -15.087123      135.2659       1.3740002    
   4863000   95.87856      -19.04051       3.9534552     -15.087054      103.51798      1.3740002    
   4864000   93.312709     -18.934377      3.847655      -15.086722      161.89892      1.3740002    
   4865000   97.762988     -19.118296      4.0311577     -15.087138      104.54082      1.3740002    
   4866000   92.110359     -18.885119      3.7980773     -15.087041      182.94075      1.3740002    
   4867000   98.409392     -19.14481       4.0578115     -15.086999      48.859318      1.3740002    
   4868000   93.054138     -18.924663      3.836993      -15.08767       110.81726      1.3740002    
   4869000   93.964061     -18.961876      3.8745128     -15.087364      119.97579      1.3740002    
   4870000   97.51733      -19.108448      4.0210283     -15.08742       39.207538      1.3740002    
   4871000   89.796527     -18.789824      3.7026688     -15.087156      231.0135       1.3740002    
   4872000   89.41888      -18.774008      3.6870969     -15.086911      194.68831      1.3740002    
   4873000   88.413717     -18.732966      3.64565       -15.087316      237.4666       1.3740002    
   4874000   95.426808     -19.021672      3.9348277     -15.086844      95.809185      1.3740002    
   4875000   94.823806     -18.997446      3.9099635     -15.087483      112.76626      1.3740002    
   4876000   96.775101     -19.077928      3.9904232     -15.087505      10.572052      1.3740002    
   4877000   90.793698     -18.830826      3.7437861     -15.08704       179.74394      1.3740002    
   4878000   93.588083     -18.946307      3.8590097     -15.087298      138.20237      1.3740002    
   4879000   94.773982     -18.995047      3.9079091     -15.087138      113.76225      1.3740002    
   4880000   92.211826     -18.889035      3.8022612     -15.086773      200.51194      1.3740002    
   4881000   91.552268     -18.86218       3.7750649     -15.087115      244.92446      1.3740002    
   4882000   90.312847     -18.81067       3.7239587     -15.086711      190.95787      1.3740002    
   4883000   103.89184     -19.370902      4.2838747     -15.087027     -76.399354      1.3740002    
   4884000   90.509749     -18.818862      3.7320777     -15.086785      272.50182      1.3740002    
   4885000   97.195296     -19.094543      4.0077495     -15.086793      7.254503       1.3740002    
   4886000   95.972097     -19.044183      3.9573121     -15.086871      141.13889      1.3740002    
   4887000   92.958918     -18.919914      3.8330668     -15.086848      197.85339      1.3740002    
   4888000   89.301175     -18.769731      3.6822434     -15.087487      251.54838      1.3740002    
   4889000   92.138602     -18.886268      3.7992418     -15.087026      173.47061      1.3740002    
   4890000   94.515028     -18.984383      3.8972314     -15.087152      118.57844      1.3740002    
   4891000   94.34848      -18.977654      3.8903639     -15.08729       129.96969      1.3740002    
   4892000   91.728174     -18.869464      3.7823183     -15.087146      199.53043      1.3740002    
   4893000   96.023859     -19.046927      3.9594465     -15.08748       75.391132      1.3740002    
   4894000   92.891526     -18.917396      3.8302879     -15.087108      207.06513      1.3740002    
   4895000   95.776313     -19.036772      3.9492392     -15.087532      119.59717      1.3740002    
   4896000   94.435312     -18.981105      3.8939444     -15.087161      122.97943      1.3740002    
   4897000   98.071055     -19.130373      4.0438605     -15.086513      83.391876      1.3740002    
   4898000   94.240763     -18.973279      3.8859223     -15.087357      134.14462      1.3740002    
   4899000   99.047174     -19.170753      4.0841098     -15.086643      53.857338      1.3740002    
   4900000   91.279959     -18.850706      3.7638366     -15.086869      183.1538       1.3740002    
   4901000   101.29665     -19.263913      4.1768645     -15.087048      31.178481      1.3740002    
   4902000   97.522439     -19.107995      4.0212389     -15.086756      100.20648      1.3740002    
   4903000   97.719483     -19.116621      4.0293638     -15.087257      41.885487      1.3740002    
   4904000   97.964634     -19.127085      4.0394724     -15.087612      48.043469      1.3740002    
   4905000   92.509256     -18.901645      3.8145254     -15.08712       204.2034       1.3740002    
   4906000   97.851376     -19.121407      4.0348023     -15.086604      61.325004      1.3740002    
   4907000   97.880344     -19.122739      4.0359968     -15.086742      43.963031      1.3740002    
   4908000   93.229705     -18.931164      3.8442324     -15.086931      216.2007       1.3740002    
   4909000   97.756669     -19.117954      4.0308972     -15.087057      87.134275      1.3740002    
   4910000   96.100842     -19.05002       3.9626208     -15.087399      82.668571      1.3740002    
   4911000   97.700819     -19.115743      4.0285942     -15.087149      23.9668        1.3740002    
   4912000   92.6674       -18.90792       3.8210463     -15.086874      119.47899      1.3740002    
   4913000   96.576873     -19.068875      3.9822494     -15.086626      114.09387      1.3740002    
   4914000   90.967357     -18.837793      3.7509467     -15.086846      216.60492      1.3740002    
   4915000   91.119252     -18.844353      3.75721       -15.087143      192.25404      1.3740002    
   4916000   95.39534      -19.020585      3.9335301     -15.087055      162.80902      1.3740002    
   4917000   98.047549     -19.130105      4.0428913     -15.087214      43.487695      1.3740002    
   4918000   93.22396      -18.931037      3.8439955     -15.087041      131.81917      1.3740002    
   4919000   88.222453     -18.724655      3.6377634     -15.086891      278.58848      1.3740002    
   4920000   93.590281     -18.946246      3.8591003     -15.087146      160.44475      1.3740002    
   4921000   98.77889      -19.159853      4.0730474     -15.086805      1.6426395      1.3740002    
   4922000   94.539851     -18.985315      3.8982549     -15.08706       145.70425      1.3740002    
   4923000   96.238867     -19.055368      3.9683121     -15.087055      117.75442      1.3740002    
   4924000   96.176044     -19.05316       3.9657217     -15.087439      90.186382      1.3740002    
   4925000   93.481259     -18.941731      3.8546049     -15.087126      155.51696      1.3740002    
   4926000   97.321487     -19.100312      4.0129529     -15.087359      43.192082      1.3740002    
   4927000   91.257591     -18.84972       3.7629142     -15.086806      153.59954      1.3740002    
   4928000   95.100969     -19.008686      3.9213921     -15.087294      126.87226      1.3740002    
   4929000   95.931951     -19.042465      3.9556568     -15.086808      143.54342      1.3740002    
   4930000   95.203373     -19.012835      3.9256146     -15.087221      112.80868      1.3740002    
   4931000   94.235807     -18.972863      3.885718      -15.087145      156.41114      1.3740002    
   4932000   93.172215     -18.929073      3.8418618     -15.087211      159.00665      1.3740002    
   4933000   95.831165     -19.038384      3.9515009     -15.086883      76.717832      1.3740002    
   4934000   93.785983     -18.955003      3.8671699     -15.087833      179.91222      1.3740002    
   4935000   95.168296     -19.011153      3.9241682     -15.086985      119.83321      1.3740002    
   4936000   90.718812     -18.827561      3.7406982     -15.086863      218.69131      1.3740002    
   4937000   96.012191     -19.046472      3.9589654     -15.087506      76.957606      1.3740002    
   4938000   99.981093     -19.209451      4.122619      -15.086832     -12.341251      1.3740002    
   4939000   98.972459     -19.167804      4.081029      -15.086775     -5.2868816      1.3740002    
   4940000   97.095645     -19.091188      4.0036405     -15.087547      53.096829      1.3740002    
   4941000   93.525473     -18.943083      3.8564281     -15.086655      163.20325      1.3740002    
   4942000   94.301798     -18.975439      3.888439      -15.087         171.06497      1.3740002    
   4943000   97.199499     -19.094725      4.0079228     -15.086803      96.222899      1.3740002    
   4944000   95.558914     -19.027117      3.9402749     -15.086842      73.697358      1.3740002    
   4945000   90.288243     -18.809997      3.7229442     -15.087052      251.48212      1.3740002    
   4946000   93.513124     -18.942567      3.8559189     -15.086648      131.05565      1.3740002    
   4947000   96.728872     -19.076032      3.988517      -15.087515      98.750544      1.3740002    
   4948000   98.376009     -19.143121      4.056435      -15.086686      45.909109      1.3740002    
   4949000   98.605992     -19.153217      4.0659181     -15.087299      21.9622        1.3740002    
   4950000   97.002427     -19.0864        3.9997967     -15.086603      87.194796      1.3740002    
   4951000   95.263763     -19.015066      3.9281047     -15.086961      119.66256      1.3740002    
   4952000   95.787041     -19.037035      3.9496815     -15.087354      161.99069      1.3740002    
   4953000   96.049384     -19.047319      3.960499      -15.08682       119.84695      1.3740002    
   4954000   93.321551     -18.935263      3.8480196     -15.087243      223.49551      1.3740002    
   4955000   98.099881     -19.132051      4.0450491     -15.087002      63.942057      1.3740002    
   4956000   101.26028     -19.26266       4.1753651     -15.087295     -10.303977      1.3740002    
   4957000   96.247467     -19.055682      3.9686667     -15.087015      70.779731      1.3740002    
   4958000   96.050584     -19.047441      3.9605485     -15.086892      133.84407      1.3740002    
   4959000   99.035532     -19.170045      4.0836298     -15.086415      61.750818      1.3740002    
   4960000   95.94425      -19.04352       3.9561639     -15.087356      96.422072      1.3740002    
   4961000   96.846423     -19.080321      3.9933641     -15.086957      63.331202      1.3740002    
   4962000   92.091898     -18.884322      3.7973161     -15.087006      180.62522      1.3740002    
   4963000   94.840912     -18.997161      3.9106689     -15.086492      163.78812      1.3740002    
   4964000   94.882358     -18.999036      3.9123778     -15.086659      135.00789      1.3740002    
   4965000   95.569047     -19.027635      3.9406928     -15.086942      125.51482      1.3740002    
   4966000   90.720596     -18.827654      3.7407718     -15.086883      296.37464      1.3740002    
   4967000   91.924917     -18.87743       3.7904308     -15.086999      186.56597      1.3740002    
   4968000   96.84692      -19.080268      3.9933846     -15.086883      98.451572      1.3740002    
   4969000   94.440761     -18.981121      3.894169      -15.086952      111.67543      1.3740002    
   4970000   95.378168     -19.019549      3.9328221     -15.086727      80.602103      1.3740002    
   4971000   98.416552     -19.145231      4.0581067     -15.087124      22.984413      1.3740002    
   4972000   96.905538     -19.083451      3.9958016     -15.087649      51.865586      1.3740002    
   4973000   102.2516      -19.303759      4.216241      -15.087518     -74.716878      1.3740002    
   4974000   94.360467     -18.978236      3.8908582     -15.087377      152.69786      1.3740002    
   4975000   93.813674     -18.955256      3.8683118     -15.086944      167.39146      1.3740002    
   4976000   101.05059     -19.253836      4.1667187     -15.087117      17.171819      1.3740002    
   4977000   98.13415      -19.133488      4.0464622     -15.087026      25.091808      1.3740002    
   4978000   99.379298     -19.185306      4.0978046     -15.087501     -0.45952106     1.3740002    
   4979000   94.561633     -18.986293      3.8991531     -15.08714       145.80923      1.3740002    
   4980000   98.751809     -19.15887       4.0719307     -15.086939      36.990883      1.3740002    
   4981000   94.781502     -18.995744      3.9082192     -15.087525      177.22555      1.3740002    
   4982000   92.89098      -18.917201      3.8302654     -15.086935      173.34685      1.3740002    
   4983000   95.046448     -19.006083      3.9191439     -15.086939      134.47962      1.3740002    
   4984000   96.554615     -19.068133      3.9813317     -15.086801      80.726378      1.3740002    
   4985000   95.446948     -19.02257       3.9356582     -15.086911      114.24223      1.3740002    
   4986000   92.992703     -18.921571      3.8344599     -15.087111      135.64259      1.3740002    
   4987000   93.098421     -18.92576       3.838819      -15.086941      183.84437      1.3740002    
   4988000   94.434588     -18.98111       3.8939145     -15.087195      154.15226      1.3740002    
   4989000   92.554857     -18.903209      3.8164057     -15.086803      140.60081      1.3740002    
   4990000   91.900688     -18.876833      3.7894317     -15.087401      192.52906      1.3740002    
   4991000   95.169516     -19.011449      3.9242185     -15.087231      102.96849      1.3740002    
   4992000   97.165843     -19.093705      4.006535      -15.08717       78.853047      1.3740002    
   4993000   98.251114     -19.138143      4.0512851     -15.086858      9.7162752      1.3740002    
   4994000   94.708083     -18.992642      3.9051918     -15.087451      132.6425       1.3740002    
   4995000   92.356243     -18.895019      3.8082161     -15.086802      216.98277      1.3740002    
   4996000   88.914463     -18.753238      3.6662977     -15.08694       247.19905      1.3740002    
   4997000   92.973252     -18.920953      3.8336578     -15.087295      142.9223       1.3740002    
   4998000   97.344018     -19.101269      4.0138819     -15.087387      39.984869      1.3740002    
   4999000   95.482313     -19.023897      3.9371164     -15.086781      79.559218      1.3740002    
   5000000   91.600804     -18.86391       3.7770663     -15.086843      186.75757      1.3740002    
Loop time of 21340.4 on 1 procs for 5000000 steps with 320 atoms

Performance: 20.243 ns/day, 1.186 hours/ns, 234.297 timesteps/s
99.6% CPU use with 1 MPI tasks x 1 OpenMP threads

MPI task timing breakdown:
Section |  min time  |  avg time  |  max time  |%varavg| %total
---------------------------------------------------------------
Pair    | 10060      | 10060      | 10060      |   0.0 | 47.14
Neigh   | 1486.1     | 1486.1     | 1486.1     |   0.0 |  6.96
Comm    | 327.26     | 327.26     | 327.26     |   0.0 |  1.53
Output  | 4.7909     | 4.7909     | 4.7909     |   0.0 |  0.02
Modify  | 9432.5     | 9432.5     | 9432.5     |   0.0 | 44.20
Other   |            | 29.6       |            |       |  0.14

Nlocal:            320 ave         320 max         320 min
Histogram: 1 0 0 0 0 0 0 0 0 0
Nghost:           3123 ave        3123 max        3123 min
Histogram: 1 0 0 0 0 0 0 0 0 0
Neighs:          47649 ave       47649 max       47649 min
Histogram: 1 0 0 0 0 0 0 0 0 0

Total # of neighbors = 47649
Ave neighs/atom = 148.90312
Neighbor list builds = 500000
Dangerous builds not checked
Total wall time: 5:55:40
