LAMMPS (15 Sep 2022)
OMP_NUM_THREADS environment is not set. Defaulting to 1 thread. (src/comm.cpp:98)
  using 1 OpenMP thread(s) per MPI task
variable T equal 94.0

units metal
boundary p p p
atom_style atomic

read_data nve.lmp
Reading data file ...
  orthogonal box = (0 0 0) to (28.90075 28.90075 28.90075)
  1 by 1 by 1 MPI processor grid
  reading atoms ...
  500 atoms
  reading velocities ...
  500 velocities
  read_data CPU = 0.049 seconds

neighbor 0.1 bin
neigh_modify delay 10 check no

pair_style lj/cut 15.0
pair_coeff 1 1 0.0103 3.405 15.0

thermo 1000
thermo_style custom step temp pe ke etotal press density

# Calculate the kinetic energy
compute g2 all rdf 1000
fix 1 all nve
fix temp_1 all ave/time 1 10000 10000 c_thermo_temp file temp.dat
fix g2_1 all ave/time 1 5000000 5000000 c_g2[*] file rdf.dat mode vector

dump 1 all custom 1000 argon.dump id type x y z vx vy vz

run 5000000
Generated 0 of 0 mixed pair_coeff terms from geometric mixing rule
Neighbor list info ...
  update: every = 1 steps, delay = 10 steps, check = no
  max neighbors/atom: 2000, page size: 100000
  master list distance cutoff = 15.1
  ghost atom cutoff = 15.1
  binsize = 7.55, bins = 4 4 4
  2 neighbor lists, perpetual/occasional/extra = 1 1 0
  (1) pair lj/cut, perpetual
      attributes: half, newton on
      pair build: half/bin/atomonly/newton
      stencil: half/bin/3d
      bin: standard
  (2) compute rdf, occasional, copy from (1)
      attributes: half, newton on
      pair build: copy
      stencil: none
      bin: none
Per MPI rank memory allocation (min/avg/max) = 4.012 | 4.012 | 4.012 Mbytes
   Step          Temp          PotEng         KinEng         TotEng         Press         Density    
         0   93.972515     -29.653098      6.0613036     -23.591795      140.60149      1.3740002    
      1000   96.548462     -29.820214      6.2274542     -23.59276       46.269018      1.3740002    
      2000   93.889483     -29.648314      6.055948      -23.592367      175.17157      1.3740002    
      3000   95.944843     -29.780843      6.1885203     -23.592323      118.91771      1.3740002    
      4000   94.754815     -29.704266      6.1117625     -23.592503      94.256779      1.3740002    
      5000   96.08312      -29.789801      6.1974393     -23.592362      92.522484      1.3740002    
      6000   93.124313     -29.598788      6.0065938     -23.592195      166.97007      1.3740002    
      7000   95.766311     -29.769269      6.1770049     -23.592264      47.922066      1.3740002    
      8000   94.093121     -29.661673      6.0690828     -23.592591      126.27836      1.3740002    
      9000   92.727037     -29.572973      5.9809692     -23.592004      174.7882       1.3740002    
     10000   93.069615     -29.594743      6.0030658     -23.591677      147.95779      1.3740002    
     11000   91.899244     -29.520046      5.9275759     -23.592471      208.51321      1.3740002    
     12000   94.046985     -29.658445      6.0661069     -23.592338      153.40184      1.3740002    
     13000   92.452092     -29.556381      5.963235      -23.593146      167.40544      1.3740002    
     14000   93.95965      -29.652931      6.0604738     -23.592457      97.671118      1.3740002    
     15000   93.938611     -29.651852      6.0591167     -23.592735      154.06582      1.3740002    
     16000   92.791337     -29.577757      5.9851166     -23.592641      155.34002      1.3740002    
     17000   93.809719     -29.643696      6.0508031     -23.592893      114.98275      1.3740002    
     18000   96.106525     -29.791408      6.1989489     -23.592459      66.589553      1.3740002    
     19000   94.27894      -29.672727      6.0810682     -23.591658      121.14911      1.3740002    
     20000   94.669155     -29.698418      6.1062374     -23.59218       108.10092      1.3740002    
     21000   96.817735     -29.837209      6.2448226     -23.592387      52.046147      1.3740002    
     22000   94.409978     -29.68154       6.0895203     -23.59202       130.64674      1.3740002    
     23000   91.579793     -29.499111      5.906971      -23.59214       211.27265      1.3740002    
     24000   94.526981     -29.68997       6.097067      -23.592903      124.03025      1.3740002    
     25000   96.80128      -29.836316      6.2437612     -23.592555      77.670592      1.3740002    
     26000   96.005385     -29.784157      6.1924253     -23.591731      113.51468      1.3740002    
     27000   91.606886     -29.501424      5.9087186     -23.592705      230.71591      1.3740002    
     28000   98.077028     -29.918209      6.326048      -23.592161      22.06371       1.3740002    
     29000   92.42843      -29.553973      5.9617088     -23.592264      170.39006      1.3740002    
     30000   92.793817     -29.577213      5.9852766     -23.591936      167.88792      1.3740002    
     31000   92.510013     -29.559224      5.966971      -23.592253      198.31965      1.3740002    
     32000   95.688992     -29.764932      6.1720177     -23.592914      95.996829      1.3740002    
     33000   94.374758     -29.680551      6.0872486     -23.593303      97.571992      1.3740002    
     34000   96.240536     -29.798833      6.2075928     -23.59124       93.755316      1.3740002    
     35000   92.708489     -29.572533      5.9797729     -23.59276       193.31711      1.3740002    
     36000   94.863367     -29.711367      6.1187643     -23.592603      117.29455      1.3740002    
     37000   96.260144     -29.800769      6.2088575     -23.591912      102.42784      1.3740002    
     38000   96.455805     -29.814737      6.2214778     -23.593259      62.239835      1.3740002    
     39000   94.216105     -29.669168      6.0770153     -23.592153      160.67772      1.3740002    
     40000   93.188462     -29.603005      6.0107315     -23.592273      147.42516      1.3740002    
     41000   96.190931     -29.796892      6.2043932     -23.592499      59.678464      1.3740002    
     42000   92.16818      -29.537445      5.9449225     -23.592522      152.85435      1.3740002    
     43000   96.409314     -29.810492      6.218479      -23.592013      49.412342      1.3740002    
     44000   97.499638     -29.880899      6.2888059     -23.592094      40.871296      1.3740002    
     45000   91.583502     -29.499479      5.9072103     -23.592269      161.99257      1.3740002    
     46000   91.885014     -29.518667      5.926658      -23.592009      165.59864      1.3740002    
     47000   93.899974     -29.649394      6.0566246     -23.592769      165.20903      1.3740002    
     48000   93.976086     -29.653455      6.0615339     -23.591921      120.882        1.3740002    
     49000   97.987799     -29.91203       6.3202926     -23.591737      106.47058      1.3740002    
     50000   90.913436     -29.45565       5.8639905     -23.591659      204.81686      1.3740002    
     51000   92.86023      -29.58207       5.9895603     -23.59251       140.84379      1.3740002    
     52000   93.210097     -29.604302      6.012127      -23.592175      146.1143       1.3740002    
     53000   96.46592      -29.814586      6.2221302     -23.592455      77.191283      1.3740002    
     54000   95.455487     -29.74912       6.1569565     -23.592163      101.0125       1.3740002    
     55000   94.070794     -29.659133      6.0676427     -23.59149       157.61505      1.3740002    
     56000   92.191069     -29.538829      5.9463988     -23.59243       145.93709      1.3740002    
     57000   95.041215     -29.722927      6.1302356     -23.592692      161.5366       1.3740002    
     58000   95.163789     -29.730932      6.1381417     -23.592791      114.5046       1.3740002    
     59000   93.012113     -29.591371      5.9993568     -23.592015      150.9586       1.3740002    
     60000   90.306569     -29.417295      5.824847      -23.592448      216.53555      1.3740002    
     61000   95.102324     -29.725963      6.1341771     -23.591786      132.66197      1.3740002    
     62000   93.864064     -29.646392      6.0543084     -23.592084      120.35904      1.3740002    
     63000   94.348286     -29.677453      6.0855411     -23.591912      114.41843      1.3740002    
     64000   96.02857      -29.78593       6.1939207     -23.59201       97.325471      1.3740002    
     65000   93.443912     -29.618948      6.0272082     -23.59174       139.7694       1.3740002    
     66000   94.506014     -29.687526      6.0957146     -23.591811      119.33771      1.3740002    
     67000   97.31029      -29.86858       6.2765927     -23.591987      45.021507      1.3740002    
     68000   96.165642     -29.794307      6.2027621     -23.591545      46.288055      1.3740002    
     69000   97.536576     -29.883758      6.2911884     -23.59257       34.946184      1.3740002    
     70000   94.413157     -29.682193      6.0897254     -23.592468      103.80803      1.3740002    
     71000   91.914002     -29.520876      5.9285278     -23.592348      164.27852      1.3740002    
     72000   96.75471      -29.833579      6.2407574     -23.592822      57.401522      1.3740002    
     73000   93.437304     -29.618965      6.026782      -23.592183      138.53847      1.3740002    
     74000   97.878884     -29.905602      6.3132676     -23.592334      42.726193      1.3740002    
     75000   94.914414     -29.714936      6.1220568     -23.59288       108.42097      1.3740002    
     76000   97.266592     -29.865943      6.2737742     -23.592169      13.18281       1.3740002    
     77000   92.899176     -29.584547      5.9920723     -23.592475      181.27885      1.3740002    
     78000   95.011688     -29.720916      6.1283311     -23.592585      97.214335      1.3740002    
     79000   91.655185     -29.50405       5.9118339     -23.592216      175.01997      1.3740002    
     80000   96.296061     -29.802985      6.2111742     -23.591811      131.63022      1.3740002    
     81000   93.975654     -29.65384       6.061506      -23.592334      145.82213      1.3740002    
     82000   95.587657     -29.757739      6.1654815     -23.592257      111.27977      1.3740002    
     83000   97.980039     -29.912326      6.3197921     -23.592533      41.840146      1.3740002    
     84000   92.388786     -29.551105      5.9591518     -23.591953      184.38277      1.3740002    
     85000   92.116419     -29.533716      5.9415839     -23.592132      210.72063      1.3740002    
     86000   92.670858     -29.570526      5.9773456     -23.59318       150.25321      1.3740002    
     87000   95.46896      -29.749951      6.1578255     -23.592125      110.5556       1.3740002    
     88000   92.964845     -29.589056      5.9963081     -23.592748      143.28968      1.3740002    
     89000   96.990846     -29.848249      6.2559883     -23.592261      34.197175      1.3740002    
     90000   96.224929     -29.799041      6.2065861     -23.592455      83.544112      1.3740002    
     91000   95.896674     -29.777348      6.1854134     -23.591935      87.416617      1.3740002    
     92000   93.904732     -29.64903       6.0569315     -23.592098      117.19818      1.3740002    
     93000   95.671901     -29.763452      6.1709153     -23.592536      52.65039       1.3740002    
     94000   96.459867     -29.814316      6.2217397     -23.592577      68.018706      1.3740002    
     95000   95.017243     -29.721018      6.1286893     -23.592329      124.883        1.3740002    
     96000   98.220678     -29.927766      6.3353135     -23.592452      42.83982       1.3740002    
     97000   89.496668     -29.364955      5.7726078     -23.592348      198.71416      1.3740002    
     98000   91.021818     -29.463067      5.8709812     -23.592086      243.9893       1.3740002    
     99000   96.298684     -29.803667      6.2113433     -23.592323      66.016946      1.3740002    
    100000   94.878356     -29.711961      6.119731      -23.59223       86.974047      1.3740002    
    101000   96.330898     -29.806231      6.2134212     -23.59281       56.352948      1.3740002    
    102000   95.863798     -29.776573      6.1832929     -23.59328       73.529091      1.3740002    
    103000   93.622366     -29.631049      6.0387187     -23.59233       158.98929      1.3740002    
    104000   96.729235     -29.832264      6.2391143     -23.59315       32.833106      1.3740002    
    105000   93.043711     -29.594498      6.001395      -23.593103      130.50686      1.3740002    
    106000   94.233699     -29.670679      6.0781501     -23.592529      156.49798      1.3740002    
    107000   93.475425     -29.621986      6.0292409     -23.592746      154.9806       1.3740002    
    108000   94.102537     -29.66252       6.0696901     -23.59283       145.6411       1.3740002    
    109000   93.801705     -29.642437      6.0502861     -23.592151      122.62433      1.3740002    
    110000   93.212856     -29.604557      6.0123049     -23.592252      136.5789       1.3740002    
    111000   94.295137     -29.674514      6.0821129     -23.592401      88.069182      1.3740002    
    112000   92.278632     -29.544091      5.9520467     -23.592045      185.1758       1.3740002    
    113000   93.154823     -29.601452      6.0085618     -23.592891      124.54797      1.3740002    
    114000   95.181744     -29.731014      6.1392998     -23.591715      69.474418      1.3740002    
    115000   97.743964     -29.896316      6.3045651     -23.591751      56.311096      1.3740002    
    116000   96.695807     -29.82979       6.2369581     -23.592832      101.79312      1.3740002    
    117000   96.901291     -29.843394      6.250212      -23.593182      64.989265      1.3740002    
    118000   93.781831     -29.641423      6.0490043     -23.592419      162.9933       1.3740002    
    119000   93.588042     -29.629206      6.0365048     -23.592701      142.35623      1.3740002    
    120000   92.669324     -29.57038       5.9772467     -23.593134      132.23137      1.3740002    
    121000   94.854315     -29.710287      6.1181804     -23.592106      102.57527      1.3740002    
    122000   94.485351     -29.686762      6.0943819     -23.59238       112.76505      1.3740002    
    123000   93.535843     -29.625842      6.0331379     -23.592704      143.17985      1.3740002    
    124000   95.529712     -29.753958      6.161744      -23.592214      96.498289      1.3740002    
    125000   94.065266     -29.65981       6.0672861     -23.592524      114.47741      1.3740002    
    126000   97.372142     -29.873296      6.2805823     -23.592714      45.875179      1.3740002    
    127000   94.760499     -29.70435       6.1121291     -23.59222       68.538769      1.3740002    
    128000   96.078275     -29.79036       6.1971268     -23.593233      67.090973      1.3740002    
    129000   96.524712     -29.818829      6.2259224     -23.592907      78.075077      1.3740002    
    130000   93.055028     -29.59468       6.0021249     -23.592555      139.50835      1.3740002    
    131000   94.920605     -29.713989      6.1224561     -23.591533      106.30616      1.3740002    
    132000   95.341397     -29.740974      6.1495976     -23.591377      83.668866      1.3740002    
    133000   92.280127     -29.544185      5.9521431     -23.592041      187.66019      1.3740002    
    134000   95.491472     -29.751378      6.1592775     -23.5921        100.3905       1.3740002    
    135000   93.779175     -29.641152      6.048833      -23.592319      145.42729      1.3740002    
    136000   96.83397      -29.837971      6.2458697     -23.592102      85.38287       1.3740002    
    137000   94.510835     -29.688868      6.0960257     -23.592842      139.96389      1.3740002    
    138000   95.433713     -29.748108      6.155552      -23.592556      118.40734      1.3740002    
    139000   97.227537     -29.863804      6.2712551     -23.592549      40.244001      1.3740002    
    140000   92.369349     -29.549983      5.957898      -23.592084      155.23237      1.3740002    
    141000   90.458958     -29.426934      5.8346762     -23.592258      172.33284      1.3740002    
    142000   94.69229      -29.700144      6.1077296     -23.592414      113.35024      1.3740002    
    143000   94.610486     -29.695391      6.1024532     -23.592938      104.555        1.3740002    
    144000   94.25344      -29.67155       6.0794235     -23.592127      135.27254      1.3740002    
    145000   90.185721     -29.409111      5.8170522     -23.592059      219.83709      1.3740002    
    146000   92.141079     -29.53569       5.9431744     -23.592515      155.83521      1.3740002    
    147000   91.556152     -29.497897      5.9054462     -23.592451      224.46604      1.3740002    
    148000   94.675087     -29.698571      6.10662       -23.591951      131.37901      1.3740002    
    149000   95.404544     -29.745957      6.1536706     -23.592287      151.11235      1.3740002    
    150000   98.926695     -29.973249      6.3808522     -23.592397      22.90331       1.3740002    
    151000   97.312285     -29.86879       6.2767215     -23.592068      31.723772      1.3740002    
    152000   91.018202     -29.462877      5.870748      -23.592129      199.98663      1.3740002    
    153000   91.436137     -29.489894      5.8977051     -23.592189      220.82951      1.3740002    
    154000   96.724061     -29.831013      6.2387805     -23.592232      97.47764       1.3740002    
    155000   90.530397     -29.431472      5.8392841     -23.592188      203.95046      1.3740002    
    156000   95.806771     -29.772192      6.1796146     -23.592578      89.797939      1.3740002    
    157000   88.836812     -29.322167      5.7300465     -23.59212       234.67492      1.3740002    
    158000   93.458881     -29.620318      6.0281738     -23.592144      98.239303      1.3740002    
    159000   92.4762       -29.557089      5.96479       -23.592299      182.61613      1.3740002    
    160000   96.991731     -29.84845       6.2560454     -23.592405      34.494698      1.3740002    
    161000   92.39167      -29.551684      5.9593378     -23.592346      183.71011      1.3740002    
    162000   93.273853     -29.608398      6.0162393     -23.592158      156.66183      1.3740002    
    163000   93.732408     -29.637807      6.0458165     -23.591991      120.0104       1.3740002    
    164000   96.906996     -29.841921      6.25058       -23.591341      83.060319      1.3740002    
    165000   93.729213     -29.637983      6.0456104     -23.592373      146.97949      1.3740002    
    166000   95.812639     -29.772463      6.1799931     -23.59247       114.10299      1.3740002    
    167000   91.404031     -29.487986      5.8956342     -23.592352      228.46428      1.3740002    
    168000   95.439237     -29.748453      6.1559083     -23.592545      94.721639      1.3740002    
    169000   94.760967     -29.704458      6.1121593     -23.592299      111.92278      1.3740002    
    170000   94.262856     -29.672171      6.0800308     -23.59214       128.00936      1.3740002    
    171000   97.093635     -29.854537      6.2626183     -23.591918      82.193202      1.3740002    
    172000   96.251645     -29.799478      6.2083093     -23.591168      114.91572      1.3740002    
    173000   92.95732      -29.588829      5.9958227     -23.593006      114.81335      1.3740002    
    174000   92.158788     -29.536743      5.9443167     -23.592427      184.67281      1.3740002    
    175000   96.997001     -29.848633      6.2563854     -23.592248      49.032524      1.3740002    
    176000   91.453582     -29.491203      5.8988303     -23.592372      189.53666      1.3740002    
    177000   101.00712     -30.107363      6.515041      -23.592322      5.6597174      1.3740002    
    178000   93.233909     -29.605913      6.0136629     -23.59225       128.71866      1.3740002    
    179000   92.323        -29.546968      5.9549085     -23.592059      216.2004       1.3740002    
    180000   94.66886      -29.698382      6.1062184     -23.592164      153.41782      1.3740002    
    181000   95.207068     -29.733005      6.1409332     -23.592072      99.286196      1.3740002    
    182000   95.195567     -29.732802      6.1401914     -23.59261       92.666669      1.3740002    
    183000   92.402771     -29.552124      5.9600538     -23.59207       181.04391      1.3740002    
    184000   96.099575     -29.791133      6.1985007     -23.592632      71.544739      1.3740002    
    185000   94.06434      -29.659673      6.0672263     -23.592447      103.11773      1.3740002    
    186000   95.225563     -29.734199      6.1421262     -23.592073      131.44552      1.3740002    
    187000   98.742166     -29.961144      6.3689499     -23.592195      47.127407      1.3740002    
    188000   96.352676     -29.807229      6.2148259     -23.592403      107.15198      1.3740002    
    189000   91.454667     -29.490657      5.8989003     -23.591756      179.44714      1.3740002    
    190000   93.216558     -29.604947      6.0125437     -23.592403      130.33047      1.3740002    
    191000   95.547931     -29.755369      6.1629191     -23.59245       102.58869      1.3740002    
    192000   93.118317     -29.598603      6.0062071     -23.592396      145.44427      1.3740002    
    193000   94.54808      -29.691031      6.0984279     -23.592603      80.905941      1.3740002    
    194000   94.568961     -29.691656      6.0997748     -23.591881      145.05375      1.3740002    
    195000   92.801486     -29.577511      5.9857713     -23.59174       127.72363      1.3740002    
    196000   94.274086     -29.673106      6.0807551     -23.592351      147.67892      1.3740002    
    197000   95.159521     -29.730156      6.1378664     -23.592289      86.987034      1.3740002    
    198000   93.909573     -29.650304      6.0572438     -23.59306       138.81139      1.3740002    
    199000   91.925892     -29.521425      5.9292947     -23.59213       192.23205      1.3740002    
    200000   92.976011     -29.589219      5.9970282     -23.592191      143.72827      1.3740002    
    201000   92.772611     -29.576208      5.9839088     -23.592299      179.76723      1.3740002    
    202000   94.003978     -29.655575      6.0633329     -23.592242      93.125752      1.3740002    
    203000   96.929546     -29.843925      6.2520344     -23.591891      95.644491      1.3740002    
    204000   91.608781     -29.500921      5.9088408     -23.59208       170.59406      1.3740002    
    205000   97.201764     -29.861873      6.2695928     -23.59228       26.726114      1.3740002    
    206000   92.585094     -29.564931      5.9718137     -23.593117      171.58267      1.3740002    
    207000   93.823018     -29.644082      6.0516609     -23.592421      197.88876      1.3740002    
    208000   97.789974     -29.899695      6.3075328     -23.592162      41.434422      1.3740002    
    209000   99.667674     -30.020883      6.428646      -23.592237     -3.9712944      1.3740002    
    210000   96.018244     -29.785516      6.1932547     -23.592261      80.712949      1.3740002    
    211000   97.327738     -29.869667      6.2777182     -23.591949      87.02695       1.3740002    
    212000   95.170301     -29.730747      6.1385617     -23.592186      81.383397      1.3740002    
    213000   94.406727     -29.681453      6.0893106     -23.592143      152.41306      1.3740002    
    214000   92.932083     -29.586733      5.9941949     -23.592538      160.3397       1.3740002    
    215000   94.961661     -29.71733       6.1251043     -23.592226      147.25074      1.3740002    
    216000   96.623681     -29.824324      6.2323059     -23.592018      69.45337       1.3740002    
    217000   94.505893     -29.687781      6.0957069     -23.592074      145.87072      1.3740002    
    218000   95.386005     -29.745579      6.1524748     -23.593104      74.685364      1.3740002    
    219000   95.062969     -29.724276      6.1316387     -23.592637      107.37969      1.3740002    
    220000   96.56786      -29.821198      6.2287054     -23.592492      65.197592      1.3740002    
    221000   91.504061     -29.494762      5.9020863     -23.592676      173.01373      1.3740002    
    222000   97.93345      -29.909303      6.3167871     -23.592516      38.265569      1.3740002    
    223000   94.236323     -29.670503      6.0783194     -23.592183      147.73391      1.3740002    
    224000   97.093871     -29.855103      6.2626335     -23.59247       44.015014      1.3740002    
    225000   98.788545     -29.964052      6.3719414     -23.59211       15.62522       1.3740002    
    226000   95.483959     -29.750907      6.1587929     -23.592114      81.361613      1.3740002    
    227000   92.800925     -29.578079      5.9857351     -23.592344      158.10344      1.3740002    
    228000   96.105054     -29.792307      6.1988541     -23.593453      63.948189      1.3740002    
    229000   93.993666     -29.654541      6.0626678     -23.591873      122.2403       1.3740002    
    230000   97.31043      -29.868432      6.2766018     -23.59183       52.402963      1.3740002    
    231000   95.757687     -29.768421      6.1764486     -23.591973      78.079153      1.3740002    
    232000   94.043293     -29.658234      6.0658688     -23.592365      144.65596      1.3740002    
    233000   97.596572     -29.887404      6.2950582     -23.592346      66.01664       1.3740002    
    234000   93.209908     -29.604217      6.0121148     -23.592102      126.13855      1.3740002    
    235000   93.825538     -29.644271      6.0518234     -23.592448      117.2727       1.3740002    
    236000   92.67955      -29.570566      5.9779063     -23.59266       165.48967      1.3740002    
    237000   95.82626      -29.773485      6.1808716     -23.592613      84.913981      1.3740002    
    238000   90.621163     -29.437247      5.8451387     -23.592109      196.53601      1.3740002    
    239000   99.286791     -29.995814      6.4040787     -23.591735      1.0847161      1.3740002    
    240000   92.697612     -29.571239      5.9790713     -23.592167      172.3063       1.3740002    
    241000   90.954857     -29.459637      5.8666621     -23.592975      197.88418      1.3740002    
    242000   95.068799     -29.724891      6.1320147     -23.592877      74.431436      1.3740002    
    243000   93.672848     -29.634471      6.0419748     -23.592496      107.28159      1.3740002    
    244000   90.381967     -29.422026      5.8297103     -23.592316      256.7685       1.3740002    
    245000   93.345228     -29.61258       6.0208431     -23.591737      177.22211      1.3740002    
    246000   95.884024     -29.776558      6.1845974     -23.59196       59.00879       1.3740002    
    247000   97.135042     -29.856702      6.2652891     -23.591413      98.409844      1.3740002    
    248000   95.40427      -29.746114      6.1536529     -23.592461      105.05199      1.3740002    
    249000   99.270518     -29.995835      6.403029      -23.592806      13.823078      1.3740002    
    250000   97.469894     -29.878799      6.2868874     -23.591912      100.68275      1.3740002    
    251000   97.048141     -29.852118      6.259684      -23.592434      83.375887      1.3740002    
    252000   90.953103     -29.458492      5.866549      -23.591943      231.31592      1.3740002    
    253000   91.334493     -29.483564      5.891149      -23.592415      243.01445      1.3740002    
    254000   92.892151     -29.583901      5.9916192     -23.592282      168.40183      1.3740002    
    255000   95.372651     -29.744524      6.1516135     -23.59291       81.349119      1.3740002    
    256000   96.874139     -29.840662      6.2484607     -23.592201      63.22738       1.3740002    
    257000   96.675607     -29.82804       6.2356552     -23.592385      27.246214      1.3740002    
    258000   94.026925     -29.65665       6.064813      -23.591837      138.82785      1.3740002    
    259000   91.846902     -29.516602      5.9241998     -23.592402      188.23076      1.3740002    
    260000   94.515993     -29.688534      6.0963584     -23.592175      159.56929      1.3740002    
    261000   93.430989     -29.618785      6.0263747     -23.59241       117.39273      1.3740002    
    262000   96.445688     -29.813442      6.2208252     -23.592617      41.509946      1.3740002    
    263000   98.975495     -29.976864      6.3839998     -23.592864      32.260298      1.3740002    
    264000   95.352504     -29.743088      6.1503139     -23.592774      83.910817      1.3740002    
    265000   96.101688     -29.790996      6.198637      -23.592359      93.85319       1.3740002    
    266000   90.801776     -29.449695      5.8567883     -23.592906      200.66608      1.3740002    
    267000   95.658686     -29.762467      6.1700629     -23.592404      123.16964      1.3740002    
    268000   92.630842     -29.567074      5.9747646     -23.59231       136.8695       1.3740002    
    269000   88.499399     -29.300554      5.7082831     -23.592271      238.18268      1.3740002    
    270000   92.405986     -29.552966      5.9602612     -23.592705      186.37548      1.3740002    
    271000   95.25002      -29.735749      6.1437037     -23.592046      110.04678      1.3740002    
    272000   92.491108     -29.558132      5.9657516     -23.59238       185.6261       1.3740002    
    273000   95.436591     -29.747913      6.1557377     -23.592175      100.65485      1.3740002    
    274000   92.996218     -29.590812      5.9983316     -23.59248       158.70323      1.3740002    
    275000   95.90873      -29.779189      6.186191      -23.592998      93.233723      1.3740002    
    276000   92.079632     -29.53158       5.939211      -23.592369      183.08234      1.3740002    
    277000   93.592664     -29.628932      6.0368029     -23.59213       146.27189      1.3740002    
    278000   90.490375     -29.42879       5.8367027     -23.592087      200.41083      1.3740002    
    279000   93.995044     -29.6548        6.0627567     -23.592043      126.15836      1.3740002    
    280000   97.943529     -29.909319      6.3174372     -23.591881      36.972489      1.3740002    
    281000   92.909716     -29.58494       5.9927521     -23.592188      119.67374      1.3740002    
    282000   97.731121     -29.89577       6.3037367     -23.592034      51.887606      1.3740002    
    283000   96.674265     -29.827921      6.2355686     -23.592353      72.649725      1.3740002    
    284000   89.921767     -29.392586      5.800027      -23.592559      187.46394      1.3740002    
    285000   91.871059     -29.518759      5.9257579     -23.593001      178.57779      1.3740002    
    286000   95.871202     -29.776223      6.1837704     -23.592452      93.696078      1.3740002    
    287000   92.789325     -29.577862      5.9849868     -23.592875      167.24831      1.3740002    
    288000   98.330385     -29.934494      6.3423897     -23.592104      61.997113      1.3740002    
    289000   95.264395     -29.736789      6.1446308     -23.592158      126.13825      1.3740002    
    290000   96.842607     -29.838041      6.2464268     -23.591615      52.881643      1.3740002    
    291000   90.691587     -29.441958      5.849681      -23.592277      179.43865      1.3740002    
    292000   90.764964     -29.447051      5.8544139     -23.592637      194.29275      1.3740002    
    293000   94.84636      -29.709984      6.1176673     -23.592317      107.99011      1.3740002    
    294000   94.449306     -29.684208      6.092057      -23.592151      121.74146      1.3740002    
    295000   94.487377     -29.686442      6.0945126     -23.59193       106.65674      1.3740002    
    296000   96.524163     -29.818177      6.2258869     -23.592291      90.110162      1.3740002    
    297000   91.173428     -29.47252       5.8807602     -23.59176       190.00983      1.3740002    
    298000   95.347086     -29.742266      6.1499645     -23.592301      83.941706      1.3740002    
    299000   96.392913     -29.810195      6.2174212     -23.592774      96.488236      1.3740002    
    300000   94.528829     -29.689508      6.0971863     -23.592322      115.65456      1.3740002    
    301000   92.76508      -29.575958      5.983423      -23.592535      129.15896      1.3740002    
    302000   95.68447      -29.763897      6.1717261     -23.592171      93.988106      1.3740002    
    303000   95.497357     -29.751295      6.1596571     -23.591638      112.64353      1.3740002    
    304000   93.737829     -29.638696      6.0461661     -23.59253       125.28329      1.3740002    
    305000   94.021283     -29.657042      6.0644492     -23.592593      99.329891      1.3740002    
    306000   94.524764     -29.689956      6.0969241     -23.593032      97.759191      1.3740002    
    307000   95.309118     -29.739334      6.1475156     -23.591818      148.01794      1.3740002    
    308000   95.67006      -29.763296      6.1707966     -23.5925        87.106021      1.3740002    
    309000   93.605697     -29.629939      6.0376435     -23.592296      158.66553      1.3740002    
    310000   100.03817     -30.045479      6.4525429     -23.592936     -35.845522      1.3740002    
    311000   95.215751     -29.734084      6.1414933     -23.59259       150.11086      1.3740002    
    312000   97.39432      -29.873977      6.2820127     -23.591964      64.113105      1.3740002    
    313000   95.6725       -29.76263       6.170954      -23.591676      74.738296      1.3740002    
    314000   92.37873      -29.550978      5.9585031     -23.592475      219.61687      1.3740002    
    315000   95.05496      -29.723581      6.1311221     -23.592459      45.903687      1.3740002    
    316000   92.023984     -29.527622      5.9356217     -23.592001      140.67694      1.3740002    
    317000   94.453348     -29.684715      6.0923177     -23.592397      138.38697      1.3740002    
    318000   97.125576     -29.857206      6.2646786     -23.592527      65.115786      1.3740002    
    319000   90.714364     -29.443391      5.8511502     -23.592241      194.09023      1.3740002    
    320000   92.192064     -29.53883       5.946463      -23.592367      238.02411      1.3740002    
    321000   92.420621     -29.553438      5.9612051     -23.592233      158.99657      1.3740002    
    322000   90.96855      -29.460433      5.8675454     -23.592888      185.93853      1.3740002    
    323000   98.819691     -29.966587      6.3739503     -23.592637      64.019164      1.3740002    
    324000   94.142183     -29.665057      6.0722473     -23.592809      152.73029      1.3740002    
    325000   93.058486     -29.594678      6.002348      -23.59233       127.63581      1.3740002    
    326000   93.776161     -29.640849      6.0486386     -23.59221       133.86049      1.3740002    
    327000   97.916327     -29.907703      6.3156827     -23.59202       54.595516      1.3740002    
    328000   92.019064     -29.528213      5.9353044     -23.592909      224.60336      1.3740002    
    329000   95.901103     -29.777611      6.1856991     -23.591911      70.344498      1.3740002    
    330000   93.231586     -29.605377      6.013513      -23.591864      114.47724      1.3740002    
    331000   91.571143     -29.498911      5.9064131     -23.592498      164.90861      1.3740002    
    332000   92.60766      -29.565269      5.9732693     -23.592         146.48989      1.3740002    
    333000   91.314513     -29.481807      5.8898603     -23.591947      181.95281      1.3740002    
    334000   93.899203     -29.648702      6.0565749     -23.592127      147.5534       1.3740002    
    335000   97.39146      -29.874232      6.2818283     -23.592403      47.19734       1.3740002    
    336000   92.478326     -29.556961      5.9649272     -23.592034      171.73852      1.3740002    
    337000   91.965577     -29.524531      5.9318544     -23.592677      122.24664      1.3740002    
    338000   95.999253     -29.784103      6.1920298     -23.592073      106.95016      1.3740002    
    339000   95.2861       -29.738499      6.1460309     -23.592468      109.35288      1.3740002    
    340000   95.428092     -29.747006      6.1551895     -23.591816      91.190022      1.3740002    
    341000   96.537916     -29.819419      6.226774      -23.592645      45.145226      1.3740002    
    342000   95.35756      -29.742989      6.1506401     -23.592349      124.88965      1.3740002    
    343000   92.677021     -29.570414      5.9777431     -23.592671      159.31529      1.3740002    
    344000   94.495419     -29.687567      6.0950313     -23.592536      101.97893      1.3740002    
    345000   92.228641     -29.540936      5.9488223     -23.592114      174.59381      1.3740002    
    346000   90.281318     -29.415164      5.8232183     -23.591946      174.22103      1.3740002    
    347000   93.187318     -29.60284       6.0106577     -23.592182      211.06216      1.3740002    
    348000   94.16056      -29.666183      6.0734326     -23.59275       223.70006      1.3740002    
    349000   91.56364      -29.498175      5.9059292     -23.592246      206.35525      1.3740002    
    350000   93.863706     -29.646856      6.0542853     -23.592571      146.55346      1.3740002    
    351000   92.78202      -29.576842      5.9845157     -23.592326      145.69204      1.3740002    
    352000   95.533835     -29.754375      6.16201       -23.592365      104.11111      1.3740002    
    353000   93.34339      -29.612561      6.0207245     -23.591836      176.94887      1.3740002    
    354000   94.58751      -29.693428      6.1009712     -23.592457      90.237574      1.3740002    
    355000   94.526613     -29.689539      6.0970433     -23.592496      115.54137      1.3740002    
    356000   94.834377     -29.709164      6.1168943     -23.59227       147.58232      1.3740002    
    357000   99.188738     -29.989759      6.3977542     -23.592005     -4.6960676      1.3740002    
    358000   95.889881     -29.777611      6.1849752     -23.592635      88.940556      1.3740002    
    359000   95.052424     -29.723273      6.1309586     -23.592314      121.88845      1.3740002    
    360000   96.42498      -29.811516      6.2194896     -23.592026      72.326455      1.3740002    
    361000   92.364453     -29.550184      5.9575822     -23.592602      177.81812      1.3740002    
    362000   99.135218     -29.986782      6.3943021     -23.59248       12.957879      1.3740002    
    363000   92.676515     -29.570578      5.9777105     -23.592868      179.03231      1.3740002    
    364000   93.422119     -29.618052      6.0258026     -23.59225       164.20978      1.3740002    
    365000   98.372691     -29.936973      6.3451185     -23.591854      64.462813      1.3740002    
    366000   97.856162     -29.903534      6.3118019     -23.591732      64.896951      1.3740002    
    367000   95.701878     -29.764731      6.1728489     -23.591883      97.349281      1.3740002    
    368000   95.75768      -29.768721      6.1764482     -23.592272      90.502065      1.3740002    
    369000   94.156525     -29.665427      6.0731723     -23.592254      159.09881      1.3740002    
    370000   90.415131     -29.42429       5.8318494     -23.59244       190.21691      1.3740002    
    371000   96.475587     -29.81506       6.2227538     -23.592306      99.678916      1.3740002    
    372000   90.956671     -29.458978      5.8667791     -23.592198      169.8514       1.3740002    
    373000   93.069322     -29.595227      6.0030469     -23.59218       162.59583      1.3740002    
    374000   92.168537     -29.537371      5.9449455     -23.592426      151.17076      1.3740002    
    375000   94.393367     -29.68007       6.0884488     -23.591621      145.92534      1.3740002    
    376000   93.191033     -29.603106      6.0108973     -23.592209      126.049        1.3740002    
    377000   96.754713     -29.833672      6.2407576     -23.592914      69.772434      1.3740002    
    378000   94.971996     -29.718634      6.1257709     -23.592863      122.25141      1.3740002    
    379000   94.242547     -29.671118      6.0787208     -23.592397      114.84139      1.3740002    
    380000   95.55257      -29.754891      6.1632184     -23.591673      100.70858      1.3740002    
    381000   96.312779     -29.804785      6.2122525     -23.592532      89.759934      1.3740002    
    382000   92.768241     -29.575888      5.9836269     -23.592262      133.73979      1.3740002    
    383000   96.049183     -29.787133      6.1952503     -23.591883      53.103375      1.3740002    
    384000   95.495088     -29.75218       6.1595107     -23.59267       95.824281      1.3740002    
    385000   97.516189     -29.882499      6.2898734     -23.592625      30.781607      1.3740002    
    386000   97.906747     -29.907127      6.3150647     -23.592062      49.9175        1.3740002    
    387000   94.7423       -29.703179      6.1109553     -23.592223      100.59018      1.3740002    
    388000   95.230637     -29.735078      6.1424534     -23.592624      82.612052      1.3740002    
    389000   94.661673     -29.697862      6.1057548     -23.592107      103.38309      1.3740002    
    390000   92.873727     -29.582208      5.9904309     -23.591777      159.32153      1.3740002    
    391000   95.471135     -29.750309      6.1579657     -23.592343      101.59816      1.3740002    
    392000   95.922243     -29.779125      6.1870626     -23.592063      101.52793      1.3740002    
    393000   93.93467      -29.650941      6.0588625     -23.592079      162.94957      1.3740002    
    394000   96.272688     -29.802245      6.2096666     -23.592578      115.80198      1.3740002    
    395000   93.938411     -29.651705      6.0591038     -23.592601      125.45979      1.3740002    
    396000   91.722685     -29.508812      5.9161877     -23.592624      165.66601      1.3740002    
    397000   97.43906      -29.877241      6.2848985     -23.592343      50.076279      1.3740002    
    398000   96.729167     -29.831331      6.2391099     -23.592221      100.24498      1.3740002    
    399000   93.216082     -29.605018      6.012513      -23.592505      124.0643       1.3740002    
    400000   94.219916     -29.66916       6.0772611     -23.591898      159.4617       1.3740002    
    401000   93.669148     -29.633852      6.0417361     -23.592116      114.77778      1.3740002    
    402000   92.739212     -29.574235      5.9817545     -23.592481      168.12102      1.3740002    
    403000   93.603286     -29.630268      6.037488      -23.59278       132.7369       1.3740002    
    404000   93.10773      -29.597952      6.0055242     -23.592428      184.50994      1.3740002    
    405000   92.943322     -29.587155      5.9949198     -23.592235      127.01147      1.3740002    
    406000   96.328276     -29.805395      6.2132521     -23.592143      78.163977      1.3740002    
    407000   92.798988     -29.578212      5.9856101     -23.592602      122.91334      1.3740002    
    408000   93.575305     -29.627996      6.0356832     -23.592313      125.90482      1.3740002    
    409000   94.613611     -29.695368      6.1026548     -23.592713      130.11551      1.3740002    
    410000   92.307189     -29.545883      5.9538887     -23.591994      192.50669      1.3740002    
    411000   93.11321      -29.598443      6.0058777     -23.592565      145.63428      1.3740002    
    412000   95.536363     -29.754866      6.1621731     -23.592693      113.29299      1.3740002    
    413000   96.064303     -29.788947      6.1962256     -23.592722      130.25854      1.3740002    
    414000   93.846525     -29.645589      6.0531771     -23.592412      126.10801      1.3740002    
    415000   96.322254     -29.805377      6.2128636     -23.592514      87.632112      1.3740002    
    416000   90.375276     -29.421466      5.8292787     -23.592188      200.28747      1.3740002    
    417000   93.087057     -29.596429      6.0041908     -23.592238      110.649        1.3740002    
    418000   94.096273     -29.661517      6.069286      -23.592231      222.09785      1.3740002    
    419000   90.203333     -29.41042       5.8181882     -23.592232      266.13924      1.3740002    
    420000   92.832553     -29.580573      5.9877751     -23.592798      171.85077      1.3740002    
    421000   94.026065     -29.657192      6.0647576     -23.592434      140.22644      1.3740002    
    422000   93.388523     -29.615744      6.0236356     -23.592109      159.00406      1.3740002    
    423000   92.873685     -29.583157      5.9904282     -23.592729      146.07512      1.3740002    
    424000   93.354263     -29.613567      6.0214258     -23.592141      130.17759      1.3740002    
    425000   93.802978     -29.642768      6.0503683     -23.5924        111.37367      1.3740002    
    426000   94.605114     -29.69367       6.1021067     -23.591563      116.40866      1.3740002    
    427000   93.027128     -29.591814      6.0003253     -23.591488      199.67083      1.3740002    
    428000   92.034263     -29.528422      5.9362848     -23.592137      196.478        1.3740002    
    429000   93.098618     -29.597157      6.0049365     -23.592221      141.67514      1.3740002    
    430000   93.276319     -29.608899      6.0163984     -23.5925        122.14027      1.3740002    
    431000   92.791462     -29.576789      5.9851246     -23.591665      161.72965      1.3740002    
    432000   93.943539     -29.652212      6.0594346     -23.592777      132.60908      1.3740002    
    433000   96.749049     -29.832354      6.2403923     -23.591962      96.569848      1.3740002    
    434000   91.908166     -29.519989      5.9281514     -23.591838      188.80564      1.3740002    
    435000   95.140478     -29.728682      6.1366381     -23.592044      125.64361      1.3740002    
    436000   95.251171     -29.736816      6.1437779     -23.593038      109.06611      1.3740002    
    437000   93.878536     -29.648094      6.0552418     -23.592852      97.365959      1.3740002    
    438000   92.989421     -29.590328      5.9978932     -23.592435      202.30634      1.3740002    
    439000   96.801221     -29.835878      6.2437574     -23.59212       87.2429        1.3740002    
    440000   93.696552     -29.635963      6.0435037     -23.59246       110.97772      1.3740002    
    441000   95.013853     -29.720931      6.1284707     -23.592461      118.74009      1.3740002    
    442000   92.499186     -29.558499      5.9662726     -23.592227      149.19017      1.3740002    
    443000   96.965463     -29.845862      6.2543511     -23.591511      41.559789      1.3740002    
    444000   96.331787     -29.806161      6.2134785     -23.592683      63.980353      1.3740002    
    445000   94.259351     -29.672601      6.0798047     -23.592796      96.680942      1.3740002    
    446000   95.13315      -29.728413      6.1361654     -23.592247      92.574725      1.3740002    
    447000   94.620573     -29.695378      6.1031038     -23.592274      120.15256      1.3740002    
    448000   98.269442     -29.931597      6.3384588     -23.593138     -1.7305471      1.3740002    
    449000   93.0675       -29.595362      6.0029293     -23.592433      143.97321      1.3740002    
    450000   99.828204     -30.03155       6.4390002     -23.59255      -13.442271      1.3740002    
    451000   97.493249     -29.880318      6.2883938     -23.591925      60.88512       1.3740002    
    452000   92.382358     -29.550646      5.9587371     -23.591909      191.80373      1.3740002    
    453000   95.9322       -29.779695      6.1877048     -23.59199       34.14849       1.3740002    
    454000   98.77483      -29.963551      6.3710568     -23.592494     -8.8537918      1.3740002    
    455000   96.145145     -29.794598      6.20144       -23.593158      94.150857      1.3740002    
    456000   95.812911     -29.772766      6.1800106     -23.592755      133.05         1.3740002    
    457000   92.981316     -29.590634      5.9973704     -23.593264      141.22456      1.3740002    
    458000   94.946563     -29.71708       6.1241304     -23.592949      86.214587      1.3740002    
    459000   95.034559     -29.722466      6.1298063     -23.59266       115.74895      1.3740002    
    460000   96.127039     -29.792698      6.2002721     -23.592426      97.240652      1.3740002    
    461000   96.602216     -29.823127      6.2309214     -23.592205      54.796935      1.3740002    
    462000   96.973511     -29.846933      6.2548702     -23.592063      66.877924      1.3740002    
    463000   95.608532     -29.759081      6.166828      -23.592253      107.63647      1.3740002    
    464000   94.617341     -29.69514       6.1028953     -23.592244      102.31285      1.3740002    
    465000   94.574485     -29.69261       6.1001311     -23.592479      132.86789      1.3740002    
    466000   96.143741     -29.793709      6.2013494     -23.592359      64.540563      1.3740002    
    467000   92.974952     -29.589715      5.9969599     -23.592755      148.07116      1.3740002    
    468000   95.640113     -29.761738      6.168865      -23.592873      77.898534      1.3740002    
    469000   94.138123     -29.664396      6.0719854     -23.592411      134.67077      1.3740002    
    470000   94.926515     -29.714878      6.1228373     -23.592041      138.58788      1.3740002    
    471000   92.788222     -29.57665       5.9849157     -23.591735      159.13804      1.3740002    
    472000   94.776742     -29.705545      6.1131768     -23.592368      121.2664       1.3740002    
    473000   94.833584     -29.709784      6.1168432     -23.592941      166.21329      1.3740002    
    474000   91.443226     -29.490973      5.8981624     -23.592811      229.93232      1.3740002    
    475000   93.15938      -29.601335      6.0088557     -23.592479      186.67536      1.3740002    
    476000   91.228692     -29.476963      5.8843247     -23.592638      159.90906      1.3740002    
    477000   92.683264     -29.570867      5.9781458     -23.592721      150.57936      1.3740002    
    478000   93.632009     -29.631932      6.0393406     -23.592592      123.99603      1.3740002    
    479000   92.360483     -29.549392      5.9573262     -23.592066      164.69418      1.3740002    
    480000   95.664221     -29.763676      6.17042       -23.593256      91.650788      1.3740002    
    481000   97.034461     -29.851582      6.2588016     -23.592781      91.187828      1.3740002    
    482000   92.695019     -29.571071      5.978904      -23.592167      146.10963      1.3740002    
    483000   93.731941     -29.638604      6.0457863     -23.592818      80.782671      1.3740002    
    484000   93.438605     -29.619556      6.0268659     -23.59269       117.71519      1.3740002    
    485000   93.229404     -29.605117      6.0133723     -23.591745      190.15826      1.3740002    
    486000   94.752044     -29.703661      6.1115838     -23.592078      144.13287      1.3740002    
    487000   94.858109     -29.710607      6.1184251     -23.592182      151.26086      1.3740002    
    488000   95.765512     -29.769182      6.1769533     -23.592229      107.83192      1.3740002    
    489000   95.018639     -29.721367      6.1287794     -23.592587      101.2898       1.3740002    
    490000   96.700612     -29.83008       6.237268      -23.592812      75.164194      1.3740002    
    491000   95.504147     -29.752419      6.1600951     -23.592324      100.43689      1.3740002    
    492000   92.178242     -29.538073      5.9455715     -23.592502      156.23759      1.3740002    
    493000   95.49392      -29.752191      6.1594354     -23.592756      48.245631      1.3740002    
    494000   91.509853     -29.495275      5.9024598     -23.592815      185.08036      1.3740002    
    495000   94.711466     -29.701098      6.1089665     -23.592131      103.3082       1.3740002    
    496000   92.961403     -29.588418      5.996086      -23.592332      139.82311      1.3740002    
    497000   90.186008     -29.410109      5.8170708     -23.593038      179.05718      1.3740002    
    498000   98.257965     -29.930645      6.3377185     -23.592926      10.913078      1.3740002    
    499000   94.970588     -29.719203      6.1256801     -23.593523      85.760627      1.3740002    
    500000   96.521857     -29.818478      6.2257382     -23.59274       69.793434      1.3740002    
    501000   94.774861     -29.705949      6.1130555     -23.592893      147.02527      1.3740002    
    502000   97.267214     -29.866215      6.2738143     -23.592401      82.37174       1.3740002    
    503000   94.414925     -29.682051      6.0898394     -23.592211      114.83626      1.3740002    
    504000   94.26766      -29.67265       6.0803407     -23.59231       97.781294      1.3740002    
    505000   95.588551     -29.758061      6.1655392     -23.592521      81.739461      1.3740002    
    506000   94.010185     -29.656327      6.0637333     -23.592593      154.83609      1.3740002    
    507000   91.893946     -29.519524      5.9272342     -23.59229       200.41119      1.3740002    
    508000   95.779256     -29.770242      6.1778398     -23.592402      101.1231       1.3740002    
    509000   97.854574     -29.904297      6.3116995     -23.592598      68.936435      1.3740002    
    510000   98.83803      -29.967495      6.3751333     -23.592362      24.535589      1.3740002    
    511000   96.804877     -29.836462      6.2439932     -23.592469      47.6241        1.3740002    
    512000   94.483761     -29.686204      6.0942794     -23.591925      112.99177      1.3740002    
    513000   94.193529     -29.668102      6.0755591     -23.592543      139.95012      1.3740002    
    514000   95.961008     -29.781813      6.189563      -23.59225       117.0662       1.3740002    
    515000   92.07861      -29.53183       5.9391452     -23.592684      139.80233      1.3740002    
    516000   92.840553     -29.58063       5.9882911     -23.592339      142.37888      1.3740002    
    517000   96.44153      -29.812912      6.2205571     -23.592355      51.304898      1.3740002    
    518000   93.632732     -29.631972      6.0393873     -23.592585      121.57376      1.3740002    
    519000   96.091599     -29.79052       6.1979862     -23.592533      98.945158      1.3740002    
    520000   93.125807     -29.598755      6.0066902     -23.592065      149.17389      1.3740002    
    521000   93.58407      -29.629121      6.0362485     -23.592873      114.87207      1.3740002    
    522000   92.015931     -29.527271      5.9351023     -23.592169      170.69073      1.3740002    
    523000   96.8939       -29.842545      6.2497353     -23.59281       88.358484      1.3740002    
    524000   94.727275     -29.702717      6.1099862     -23.592731      145.49095      1.3740002    
    525000   95.135242     -29.728278      6.1363004     -23.591977      98.874766      1.3740002    
    526000   93.932017     -29.651174      6.0586914     -23.592482      93.527774      1.3740002    
    527000   93.000275     -29.591581      5.9985933     -23.592987      153.50029      1.3740002    
    528000   94.059801     -29.659169      6.0669336     -23.592236      125.43677      1.3740002    
    529000   93.537961     -29.625377      6.0332745     -23.592103      143.4333       1.3740002    
    530000   96.567184     -29.821214      6.2286618     -23.592552      92.830719      1.3740002    
    531000   93.017577     -29.59172       5.9997093     -23.59201       147.74687      1.3740002    
    532000   92.748453     -29.574592      5.9823506     -23.592242      146.75953      1.3740002    
    533000   93.844357     -29.645243      6.0530372     -23.592205      126.58833      1.3740002    
    534000   91.452419     -29.491203      5.8987553     -23.592447      167.22796      1.3740002    
    535000   91.107392     -29.469063      5.8765008     -23.592562      166.28017      1.3740002    
    536000   93.218826     -29.605567      6.01269       -23.592877      147.57739      1.3740002    
    537000   92.649378     -29.568756      5.9759601     -23.592796      181.20621      1.3740002    
    538000   96.770253     -29.834001      6.2417599     -23.592241      65.311097      1.3740002    
    539000   95.796676     -29.770929      6.1789634     -23.591965      88.626719      1.3740002    
    540000   93.252154     -29.607317      6.0148397     -23.592477      133.36188      1.3740002    
    541000   93.623099     -29.631405      6.038766      -23.592639      100.76252      1.3740002    
    542000   94.830324     -29.709486      6.116633      -23.592853      124.80613      1.3740002    
    543000   95.773828     -29.769867      6.1774897     -23.592378      107.58105      1.3740002    
    544000   97.794932     -29.90005       6.3078525     -23.592198      29.647556      1.3740002    
    545000   97.55884      -29.885099      6.2926245     -23.592474      81.845963      1.3740002    
    546000   92.858314     -29.58163       5.9894367     -23.592193      172.62278      1.3740002    
    547000   93.473409     -29.62166       6.0291108     -23.592549      131.10105      1.3740002    
    548000   97.732328     -29.896066      6.3038145     -23.592251      72.382198      1.3740002    
    549000   97.902211     -29.90728       6.3147722     -23.592508      64.177524      1.3740002    
    550000   94.653307     -29.69774       6.1052152     -23.592525      141.75165      1.3740002    
    551000   87.211789     -29.218088      5.6252312     -23.592857      233.28991      1.3740002    
    552000   95.807653     -29.772317      6.1796714     -23.592646      101.46857      1.3740002    
    553000   91.446962     -29.491166      5.8984033     -23.592762      144.84961      1.3740002    
    554000   94.519851     -29.689278      6.0966072     -23.592671      129.4246       1.3740002    
    555000   97.478111     -29.879843      6.2874174     -23.592425      33.112341      1.3740002    
    556000   94.894298     -29.712824      6.1207593     -23.592065      117.05827      1.3740002    
    557000   94.707808     -29.701133      6.1087306     -23.592403      143.12603      1.3740002    
    558000   95.741524     -29.767609      6.1754061     -23.592203      103.36031      1.3740002    
    559000   97.913104     -29.907234      6.3154748     -23.591759      53.052074      1.3740002    
    560000   92.404806     -29.552376      5.960185      -23.592191      168.40528      1.3740002    
    561000   96.278457     -29.802774      6.2100387     -23.592735      55.320673      1.3740002    
    562000   95.542165     -29.754872      6.1625473     -23.592325      113.30309      1.3740002    
    563000   96.729462     -29.831528      6.2391289     -23.592399      38.213364      1.3740002    
    564000   96.266718     -29.801787      6.2092815     -23.592506      69.980724      1.3740002    
    565000   98.168589     -29.924271      6.3319537     -23.592317      59.699174      1.3740002    
    566000   96.389407     -29.809741      6.2171951     -23.592546      71.502693      1.3740002    
    567000   98.770904     -29.963475      6.3708036     -23.592671      40.855732      1.3740002    
    568000   91.388903     -29.486583      5.8946585     -23.591924      166.47791      1.3740002    
    569000   93.668181     -29.633795      6.0416737     -23.592122      179.71222      1.3740002    
    570000   98.108395     -29.920865      6.3280712     -23.592793      71.495764      1.3740002    
    571000   91.786067     -29.512316      5.9202759     -23.59204       180.75421      1.3740002    
    572000   94.828021     -29.708156      6.1164844     -23.591671      143.94136      1.3740002    
    573000   96.470876     -29.814675      6.2224498     -23.592225      69.463653      1.3740002    
    574000   94.277719     -29.673178      6.0809895     -23.592189      133.85001      1.3740002    
    575000   95.330357     -29.741468      6.1488855     -23.592582      98.382873      1.3740002    
    576000   96.03877      -29.786986      6.1945787     -23.592407      104.29106      1.3740002    
    577000   94.452029     -29.684536      6.0922326     -23.592303      129.99281      1.3740002    
    578000   91.426995     -29.489456      5.8971155     -23.592341      156.93686      1.3740002    
    579000   92.646178     -29.568009      5.9757537     -23.592255      152.84814      1.3740002    
    580000   94.289137     -29.673859      6.0817259     -23.592133      109.21355      1.3740002    
    581000   93.625938     -29.630829      6.0389491     -23.59188       166.81171      1.3740002    
    582000   97.257829     -29.865481      6.273209      -23.592272      105.22185      1.3740002    
    583000   96.573202     -29.820526      6.22905       -23.591476      59.98222       1.3740002    
    584000   92.172161     -29.537612      5.9451793     -23.592433      170.31719      1.3740002    
    585000   95.631987     -29.761162      6.1683408     -23.592821      106.00824      1.3740002    
    586000   91.645933     -29.503805      5.9112372     -23.592567      210.22612      1.3740002    
    587000   93.588009     -29.627628      6.0365026     -23.591126      188.847        1.3740002    
    588000   92.728437     -29.573895      5.9810595     -23.592836      170.44195      1.3740002    
    589000   95.369833     -29.744282      6.1514317     -23.59285       95.682359      1.3740002    
    590000   94.00384      -29.655165      6.0633241     -23.591841      214.39728      1.3740002    
    591000   96.462604     -29.814169      6.2219163     -23.592253      127.34192      1.3740002    
    592000   97.267883     -29.86605       6.2738574     -23.592193      58.39272       1.3740002    
    593000   91.81392      -29.51416       5.9220724     -23.592087      201.25048      1.3740002    
    594000   96.002838     -29.784331      6.1922611     -23.59207       121.91313      1.3740002    
    595000   95.079999     -29.724879      6.1327372     -23.592142      144.73357      1.3740002    
    596000   96.782987     -29.834972      6.2425813     -23.592391      46.318674      1.3740002    
    597000   95.29799      -29.738996      6.1467978     -23.592198      103.68933      1.3740002    
    598000   91.532151     -29.495895      5.9038981     -23.591997      197.73655      1.3740002    
    599000   92.468552     -29.557234      5.9642967     -23.592937      151.43472      1.3740002    
    600000   95.837058     -29.773423      6.1815681     -23.591855      103.9669       1.3740002    
    601000   94.183671     -29.667397      6.0749233     -23.592474      140.84492      1.3740002    
    602000   91.984905     -29.525347      5.9331011     -23.592246      186.90672      1.3740002    
    603000   95.34788      -29.742454      6.1500157     -23.592438      99.272704      1.3740002    
    604000   93.050122     -29.594273      6.0018085     -23.592465      139.96553      1.3740002    
    605000   96.241071     -29.799683      6.2076273     -23.592056      98.944978      1.3740002    
    606000   94.359612     -29.67867       6.0862716     -23.592398      138.14666      1.3740002    
    607000   95.027881     -29.721513      6.1293755     -23.592137      137.20868      1.3740002    
    608000   94.525997     -29.689287      6.0970036     -23.592283      99.748418      1.3740002    
    609000   96.671884     -29.827787      6.2354151     -23.592372      80.185413      1.3740002    
    610000   95.364261     -29.743241      6.1510723     -23.592169      123.10728      1.3740002    
    611000   95.505935     -29.752063      6.1602104     -23.591853      88.821415      1.3740002    
    612000   98.336551     -29.935302      6.3427874     -23.592514      7.1201236      1.3740002    
    613000   93.156337     -29.601052      6.0086594     -23.592393      78.664941      1.3740002    
    614000   98.156534     -29.923544      6.3311762     -23.592367      21.228866      1.3740002    
    615000   92.364942     -29.549988      5.9576138     -23.592374      158.61274      1.3740002    
    616000   95.167878     -29.730491      6.1384054     -23.592085      105.72677      1.3740002    
    617000   95.605371     -29.758606      6.1666241     -23.591981      135.29737      1.3740002    
    618000   90.185287     -29.409262      5.8170242     -23.592238      249.40158      1.3740002    
    619000   96.982826     -29.848375      6.2554711     -23.592903      76.670171      1.3740002    
    620000   96.413804     -29.810716      6.2187687     -23.591948      49.238195      1.3740002    
    621000   92.325935     -29.546481      5.9550978     -23.591383      129.18524      1.3740002    
    622000   92.542849     -29.561172      5.9690889     -23.592083      176.70118      1.3740002    
    623000   93.837238     -29.645041      6.0525781     -23.592463      99.843006      1.3740002    
    624000   96.431705     -29.81322       6.2199233     -23.593297      83.256521      1.3740002    
    625000   99.427116     -30.005087      6.4131298     -23.591957     -21.703238      1.3740002    
    626000   94.298543     -29.674457      6.0823326     -23.592124      146.13139      1.3740002    
    627000   93.394185     -29.616205      6.0240008     -23.592204      140.15947      1.3740002    
    628000   94.683227     -29.69929       6.107145      -23.592145      112.59805      1.3740002    
    629000   90.788269     -29.44776       5.8559171     -23.591843      209.35668      1.3740002    
    630000   91.969761     -29.52418       5.9321243     -23.592056      239.4778       1.3740002    
    631000   93.881428     -29.647945      6.0554284     -23.592517      161.34302      1.3740002    
    632000   93.023987     -29.592333      6.0001227     -23.592211      155.27552      1.3740002    
    633000   92.633572     -29.567918      5.9749406     -23.592977      118.19716      1.3740002    
    634000   93.534281     -29.625183      6.0330371     -23.592146      114.80473      1.3740002    
    635000   98.960517     -29.975438      6.3830338     -23.592405      55.407318      1.3740002    
    636000   96.213158     -29.798675      6.2058269     -23.592848      114.51763      1.3740002    
    637000   94.731986     -29.702224      6.11029       -23.591934      93.560066      1.3740002    
    638000   97.407836     -29.874956      6.2828845     -23.592072      31.90914       1.3740002    
    639000   93.090997     -29.596625      6.0044449     -23.59218       138.8926       1.3740002    
    640000   95.415157     -29.746597      6.1543551     -23.592242      77.927256      1.3740002    
    641000   96.941738     -29.845272      6.2528209     -23.592452      71.922966      1.3740002    
    642000   94.164488     -29.665888      6.073686      -23.592202      118.93481      1.3740002    
    643000   93.168795     -29.602         6.009463      -23.592537      159.4523       1.3740002    
    644000   92.628406     -29.567023      5.9746074     -23.592415      148.54414      1.3740002    
    645000   88.909878     -29.32715       5.7347594     -23.592391      222.87565      1.3740002    
    646000   93.94842      -29.652156      6.0597494     -23.592407      112.62138      1.3740002    
    647000   94.277622     -29.673291      6.0809832     -23.592308      114.57441      1.3740002    
    648000   94.083934     -29.660811      6.0684902     -23.592321      113.05925      1.3740002    
    649000   95.978083     -29.783059      6.1906643     -23.592395      97.476631      1.3740002    
    650000   95.108518     -29.726909      6.1345767     -23.592333      140.61146      1.3740002    
    651000   95.782898     -29.770094      6.1780747     -23.59202       122.2597       1.3740002    
    652000   94.682921     -29.699464      6.1071253     -23.592338      110.17577      1.3740002    
    653000   93.807868     -29.643309      6.0506837     -23.592625      149.29421      1.3740002    
    654000   98.476791     -29.944546      6.351833      -23.592713      19.948782      1.3740002    
    655000   92.832541     -29.580533      5.9877743     -23.592759      199.81428      1.3740002    
    656000   93.986933     -29.654811      6.0622335     -23.592578      138.58354      1.3740002    
    657000   90.412816     -29.423405      5.8317001     -23.591705      215.07482      1.3740002    
    658000   94.096084     -29.661112      6.0692739     -23.591838      143.33845      1.3740002    
    659000   93.552437     -29.626836      6.0342082     -23.592628      164.2816       1.3740002    
    660000   95.541258     -29.754698      6.1624887     -23.592209      96.644662      1.3740002    
    661000   94.045662     -29.659281      6.0660216     -23.593259      172.91263      1.3740002    
    662000   96.89136      -29.842658      6.2495714     -23.593087      124.46055      1.3740002    
    663000   91.562087     -29.497703      5.905829      -23.591875      228.02017      1.3740002    
    664000   89.459927     -29.362202      5.770238      -23.591964      239.74386      1.3740002    
    665000   97.832922     -29.902824      6.3103029     -23.592521      105.25716      1.3740002    
    666000   96.972116     -29.847251      6.2547803     -23.59247       48.964387      1.3740002    
    667000   96.977821     -29.847112      6.2551482     -23.591964      63.915645      1.3740002    
    668000   97.141301     -29.857871      6.2656928     -23.592178      92.245772      1.3740002    
    669000   94.117428     -29.663372      6.0706505     -23.592722      144.41531      1.3740002    
    670000   93.500072     -29.623618      6.0308306     -23.592787      177.96495      1.3740002    
    671000   94.288045     -29.673862      6.0816555     -23.592206      168.62804      1.3740002    
    672000   91.99692      -29.525695      5.9338761     -23.591819      199.81558      1.3740002    
    673000   96.762953     -29.832971      6.2412891     -23.591682      79.761986      1.3740002    
    674000   97.680233     -29.8928        6.3004544     -23.592345      83.098912      1.3740002    
    675000   89.923841     -29.392275      5.8001608     -23.592114      248.9096       1.3740002    
    676000   92.353204     -29.549144      5.9568567     -23.592287      184.01186      1.3740002    
    677000   93.618448     -29.631057      6.038466      -23.592591      134.00434      1.3740002    
    678000   94.929031     -29.715545      6.1229996     -23.592545      108.95652      1.3740002    
    679000   89.915273     -29.392376      5.7996081     -23.592768      201.42191      1.3740002    
    680000   95.734427     -29.767596      6.1749483     -23.592648      81.730505      1.3740002    
    681000   93.216501     -29.605119      6.01254       -23.592579      162.45429      1.3740002    
    682000   97.309399     -29.868629      6.2765353     -23.592094      61.487875      1.3740002    
    683000   95.412604     -29.747033      6.1541905     -23.592842      95.848359      1.3740002    
    684000   98.875183     -29.970476      6.3775296     -23.592946      22.310358      1.3740002    
    685000   91.100241     -29.468678      5.8760395     -23.592638      193.25328      1.3740002    
    686000   94.34686      -29.677771      6.0854491     -23.592322      130.43619      1.3740002    
    687000   90.817424     -29.450291      5.8577976     -23.592494      194.01311      1.3740002    
    688000   91.08737      -29.467536      5.8752094     -23.592327      220.41333      1.3740002    
    689000   94.133277     -29.663123      6.0716728     -23.59145       139.07307      1.3740002    
    690000   100.68309     -30.086083      6.4941412     -23.591942      27.549238      1.3740002    
    691000   97.547218     -29.884389      6.2918748     -23.592514      79.092788      1.3740002    
    692000   94.206168     -29.66885       6.0763744     -23.592476      107.22763      1.3740002    
    693000   95.609794     -29.759062      6.1669094     -23.592152      81.589362      1.3740002    
    694000   96.590397     -29.822664      6.2301591     -23.592505      88.043535      1.3740002    
    695000   94.78743      -29.705662      6.1138662     -23.591796      118.55756      1.3740002    
    696000   94.298482     -29.674789      6.0823287     -23.59246       157.85153      1.3740002    
    697000   92.716503     -29.572539      5.9802898     -23.592249      168.5826       1.3740002    
    698000   97.901105     -29.906624      6.3147008     -23.591923      61.548154      1.3740002    
    699000   94.76492      -29.704889      6.1124143     -23.592475      136.27367      1.3740002    
    700000   96.237917     -29.800522      6.2074238     -23.593098      84.602528      1.3740002    
    701000   91.106763     -29.468803      5.8764602     -23.592343      167.27325      1.3740002    
    702000   99.36614      -30.001165      6.4091967     -23.591968      46.685316      1.3740002    
    703000   91.625313     -29.50144       5.9099071     -23.591533      131.2989       1.3740002    
    704000   94.881181     -29.712201      6.1199132     -23.592288      99.248012      1.3740002    
    705000   95.277759     -29.738094      6.1454929     -23.592601      88.677487      1.3740002    
    706000   91.613457     -29.501632      5.9091424     -23.59249       212.68143      1.3740002    
    707000   90.161828     -29.407945      5.8155111     -23.592434      196.37468      1.3740002    
    708000   90.671854     -29.44134       5.8484082     -23.592932      199.28746      1.3740002    
    709000   96.87541      -29.840542      6.2485427     -23.591999      64.129481      1.3740002    
    710000   93.590874     -29.62842       6.0366874     -23.591732      146.73348      1.3740002    
    711000   97.178256     -29.860133      6.2680765     -23.592057      35.165344      1.3740002    
    712000   99.975653     -30.040621      6.4485108     -23.59211       24.563479      1.3740002    
    713000   92.568332     -29.563104      5.9707326     -23.592372      179.96841      1.3740002    
    714000   95.70134      -29.765113      6.1728142     -23.592299      97.082475      1.3740002    
    715000   96.032457     -29.786221      6.1941715     -23.592049      98.603829      1.3740002    
    716000   96.469208     -29.814848      6.2223423     -23.592506      138.21086      1.3740002    
    717000   94.864801     -29.711216      6.1188567     -23.592359      111.89612      1.3740002    
    718000   96.609552     -29.823846      6.2313946     -23.592451      62.72967       1.3740002    
    719000   92.299043     -29.545683      5.9533633     -23.59232       153.60803      1.3740002    
    720000   97.910362     -29.907752      6.3152979     -23.592454      41.274462      1.3740002    
    721000   94.882632     -29.712352      6.1200068     -23.592345      101.44417      1.3740002    
    722000   95.583161     -29.757614      6.1651915     -23.592423      84.308458      1.3740002    
    723000   93.714858     -29.637386      6.0446845     -23.592701      149.87427      1.3740002    
    724000   96.475027     -29.814997      6.2227176     -23.592279      98.675973      1.3740002    
    725000   96.964016     -29.846111      6.2542578     -23.591853      83.040067      1.3740002    
    726000   94.39931      -29.681194      6.0888321     -23.592362      105.20533      1.3740002    
    727000   95.911741     -29.779544      6.1863852     -23.593159      68.64252       1.3740002    
    728000   92.911146     -29.585032      5.9928444     -23.592188      149.84631      1.3740002    
    729000   94.969278     -29.717643      6.1255956     -23.592048      114.12305      1.3740002    
    730000   98.936099     -29.973848      6.3814588     -23.592389      2.2430181      1.3740002    
    731000   91.510425     -29.494785      5.9024968     -23.592289      217.31972      1.3740002    
    732000   93.88493      -29.647655      6.0556543     -23.592001      137.28204      1.3740002    
    733000   94.24069      -29.671358      6.0786011     -23.592757      141.17035      1.3740002    
    734000   99.645459     -30.019416      6.4272131     -23.592203      21.315305      1.3740002    
    735000   95.962366     -29.78159       6.1896506     -23.591939      111.63723      1.3740002    
    736000   94.219314     -29.669152      6.0772223     -23.59193       124.78483      1.3740002    
    737000   94.769962     -29.704674      6.1127395     -23.591935      114.56462      1.3740002    
    738000   95.786763     -29.770735      6.178324      -23.592411      68.458684      1.3740002    
    739000   93.265606     -29.608437      6.0157074     -23.59273       114.96783      1.3740002    
    740000   95.284195     -29.738728      6.145908      -23.59282       105.16642      1.3740002    
    741000   98.547092     -29.948613      6.3563675     -23.592245      41.408867      1.3740002    
    742000   93.956107     -29.652807      6.0602452     -23.592562      189.57944      1.3740002    
    743000   94.940117     -29.716329      6.1237147     -23.592614      145.76923      1.3740002    
    744000   94.396837     -29.680664      6.0886727     -23.591992      147.44368      1.3740002    
    745000   91.577029     -29.499245      5.9067927     -23.592452      142.34343      1.3740002    
    746000   92.314342     -29.546365      5.9543501     -23.592015      156.42829      1.3740002    
    747000   94.179868     -29.666814      6.074678      -23.592136      123.86204      1.3740002    
    748000   93.405931     -29.617219      6.0247584     -23.59246       156.84018      1.3740002    
    749000   96.449654     -29.814039      6.221081      -23.592958      81.903368      1.3740002    
    750000   95.145946     -29.72957       6.1369908     -23.592579      139.38443      1.3740002    
    751000   101.23892     -30.122548      6.5299924     -23.592555     -32.386354      1.3740002    
    752000   94.236332     -29.670276      6.07832       -23.591956      107.24019      1.3740002    
    753000   89.203149     -29.345129      5.7536756     -23.591453      261.93941      1.3740002    
    754000   94.846162     -29.710092      6.1176545     -23.592437      132.32974      1.3740002    
    755000   92.318517     -29.54721       5.9546193     -23.592591      197.64129      1.3740002    
    756000   94.898786     -29.713482      6.1210488     -23.592433      88.078215      1.3740002    
    757000   92.517831     -29.559788      5.9674753     -23.592312      180.59997      1.3740002    
    758000   94.584965     -29.69316       6.1008071     -23.592353      92.165274      1.3740002    
    759000   95.880909     -29.776779      6.1843965     -23.592383      64.845926      1.3740002    
    760000   91.770299     -29.511951      5.9192588     -23.592692      182.21901      1.3740002    
    761000   98.275682     -29.93124       6.3388613     -23.592379      46.746801      1.3740002    
    762000   91.354946     -29.484229      5.8924683     -23.591761      200.42945      1.3740002    
    763000   92.245456     -29.541637      5.9499068     -23.591731      175.31951      1.3740002    
    764000   95.249948     -29.735821      6.143699      -23.592122      109.44788      1.3740002    
    765000   92.561485     -29.562766      5.970291      -23.592475      150.69475      1.3740002    
    766000   94.474333     -29.685992      6.0936712     -23.592321      138.18033      1.3740002    
[...]
   4816000   92.797845     -29.577551      5.9855364     -23.592015      149.64759      1.3740002    
   4817000   94.866711     -29.711729      6.1189799     -23.592749      110.03953      1.3740002    
   4818000   90.996468     -29.461917      5.8693461     -23.592571      174.88992      1.3740002    
   4819000   96.436681     -29.812699      6.2202443     -23.592454      35.77375       1.3740002    
   4820000   91.123741     -29.469824      5.8775553     -23.592269      208.07857      1.3740002    
   4821000   92.661406     -29.569606      5.9767359     -23.59287       188.86896      1.3740002    
   4822000   92.438255     -29.554243      5.9623425     -23.5919        172.01655      1.3740002    
   4823000   93.036535     -29.593107      6.0009321     -23.592175      174.73955      1.3740002    
   4824000   96.212688     -29.798572      6.2057966     -23.592775      83.682324      1.3740002    
   4825000   91.955878     -29.5242        5.9312289     -23.592971      197.71381      1.3740002    
   4826000   98.599692     -29.952095      6.3597602     -23.592335      0.3635693      1.3740002    
   4827000   92.943713     -29.587268      5.994945      -23.592323      150.08656      1.3740002    
   4828000   96.81057      -29.836245      6.2443604     -23.591884      68.861346      1.3740002    
   4829000   93.946795     -29.651668      6.0596446     -23.592024      136.2691       1.3740002    
   4830000   97.223227     -29.863215      6.2709771     -23.592238      92.85339       1.3740002    
   4831000   97.41084      -29.875801      6.2830783     -23.592723      46.56505       1.3740002    
   4832000   93.387064     -29.615735      6.0235415     -23.592193      139.93848      1.3740002    
   4833000   89.232468     -29.348213      5.7555667     -23.592646      274.08185      1.3740002    
   4834000   93.824196     -29.644306      6.0517368     -23.592569      96.268116      1.3740002    
   4835000   90.388595     -29.422623      5.8301378     -23.592485      216.51768      1.3740002    
   4836000   92.581922     -29.563539      5.9716092     -23.59193       153.36532      1.3740002    
   4837000   96.230589     -29.799247      6.2069512     -23.592295      91.821568      1.3740002    
   4838000   92.213848     -29.540176      5.9478681     -23.592308      193.63839      1.3740002    
   4839000   96.668513     -29.827611      6.2351976     -23.592413      76.584995      1.3740002    
   4840000   95.062033     -29.724412      6.1315784     -23.592834      109.74844      1.3740002    
   4841000   91.888796     -29.519345      5.926902      -23.592443      179.68858      1.3740002    
   4842000   97.490942     -29.880181      6.288245      -23.591936      41.191632      1.3740002    
   4843000   94.083823     -29.660721      6.068483      -23.592238      192.53688      1.3740002    
   4844000   97.437161     -29.877234      6.284776      -23.592458      56.498643      1.3740002    
   4845000   95.139139     -29.728848      6.1365518     -23.592296      125.31185      1.3740002    
   4846000   97.710488     -29.894894      6.3024058     -23.592488      77.93401       1.3740002    
   4847000   96.256545     -29.80101       6.2086253     -23.592384      68.916274      1.3740002    
   4848000   91.221185     -29.476552      5.8838405     -23.592711      196.64243      1.3740002    
   4849000   94.460432     -29.685401      6.0927746     -23.592627      131.46465      1.3740002    
   4850000   95.341708     -29.742153      6.1496176     -23.592535      72.530418      1.3740002    
   4851000   93.252873     -29.607704      6.0148861     -23.592818      101.13299      1.3740002    
   4852000   93.458032     -29.620915      6.028119      -23.592796      123.07296      1.3740002    
   4853000   94.48704      -29.68718       6.0944909     -23.592689      122.62712      1.3740002    
   4854000   95.34846      -29.742906      6.1500531     -23.592853      105.42744      1.3740002    
   4855000   94.455348     -29.684828      6.0924467     -23.592381      113.87021      1.3740002    
   4856000   93.599979     -29.629745      6.0372747     -23.592471      138.76008      1.3740002    
   4857000   96.854019     -29.839749      6.2471629     -23.592586      110.96525      1.3740002    
   4858000   95.10204      -29.726696      6.1341588     -23.592537      116.52052      1.3740002    
   4859000   94.61296      -29.694526      6.1026128     -23.591913      116.18983      1.3740002    
   4860000   93.875814     -29.647855      6.0550662     -23.592788      111.2234       1.3740002    
   4861000   93.868915     -29.647398      6.0546213     -23.592777      169.62596      1.3740002    
   4862000   93.834848     -29.645177      6.052424      -23.592753      160.49808      1.3740002    
   4863000   92.590767     -29.563963      5.9721797     -23.591783      142.17238      1.3740002    
   4864000   96.441408     -29.812668      6.2205492     -23.592119      68.195433      1.3740002    
   4865000   92.40323      -29.552057      5.9600834     -23.591974      195.61363      1.3740002    
   4866000   91.108258     -29.469276      5.8765566     -23.592719      198.10339      1.3740002    
   4867000   94.633365     -29.696041      6.1039289     -23.592112      112.89796      1.3740002    
   4868000   97.448641     -29.877914      6.2855165     -23.592397      99.986503      1.3740002    
   4869000   95.123444     -29.728213      6.1355394     -23.592674      82.261479      1.3740002    
   4870000   92.449394     -29.555782      5.963061      -23.592721      185.14914      1.3740002    
   4871000   97.668561     -29.891865      6.2997015     -23.592164      56.100746      1.3740002    
   4872000   95.381852     -29.744854      6.152207      -23.592647      73.521927      1.3740002    
   4873000   94.116408     -29.662692      6.0705848     -23.592107      108.94748      1.3740002    
   4874000   93.548641     -29.626091      6.0339634     -23.592128      169.92524      1.3740002    
   4875000   93.275487     -29.6086        6.0163447     -23.592255      176.39043      1.3740002    
   4876000   93.394628     -29.61674       6.0240294     -23.592711      87.135218      1.3740002    
   4877000   95.468578     -29.750619      6.1578008     -23.592818      49.129253      1.3740002    
   4878000   94.339085     -29.677766      6.0849476     -23.592818      161.16509      1.3740002    
   4879000   94.21316      -29.669089      6.0768253     -23.592264      140.00938      1.3740002    
   4880000   96.510208     -29.816891      6.2249868     -23.591904      64.70429       1.3740002    
   4881000   94.250321     -29.671513      6.0792223     -23.592291      135.10641      1.3740002    
   4882000   93.291961     -29.609412      6.0174073     -23.592005      148.62531      1.3740002    
   4883000   95.62866      -29.760858      6.1681262     -23.592732      107.39762      1.3740002    
   4884000   94.590514     -29.69398       6.101165      -23.592815      110.42902      1.3740002    
   4885000   92.50517      -29.558635      5.9666586     -23.591977      180.34806      1.3740002    
   4886000   92.02996      -29.528961      5.9360072     -23.592954      159.87598      1.3740002    
   4887000   96.738558     -29.831872      6.2397156     -23.592156      65.215488      1.3740002    
   4888000   93.532303     -29.624294      6.0329095     -23.591385      149.25442      1.3740002    
   4889000   91.116327     -29.468513      5.8770771     -23.591435      206.28019      1.3740002    
   4890000   94.763104     -29.705184      6.1122972     -23.592886      131.19129      1.3740002    
   4891000   93.938256     -29.651745      6.0590939     -23.592652      115.28082      1.3740002    
   4892000   93.01204      -29.591855      5.9993521     -23.592503      156.09041      1.3740002    
   4893000   90.467815     -29.428064      5.8352475     -23.592816      205.40475      1.3740002    
   4894000   92.781478     -29.57696       5.9844807     -23.592479      136.66526      1.3740002    
   4895000   97.685311     -29.893528      6.3007819     -23.592746      55.327843      1.3740002    
   4896000   92.119948     -29.533893      5.9418115     -23.592082      206.29315      1.3740002    
   4897000   93.285228     -29.609662      6.016973      -23.592689      120.27847      1.3740002    
   4898000   92.184075     -29.53905       5.9459477     -23.593103      161.06064      1.3740002    
   4899000   95.360975     -29.742165      6.1508604     -23.591305      117.85657      1.3740002    
   4900000   95.039299     -29.722124      6.130112      -23.592012      132.84403      1.3740002    
   4901000   95.409901     -29.745993      6.1540161     -23.591977      114.22456      1.3740002    
   4902000   95.664803     -29.763676      6.1704575     -23.593219      71.704744      1.3740002    
   4903000   93.432872     -29.618983      6.0264962     -23.592486      114.62719      1.3740002    
   4904000   89.812463     -29.385442      5.7929768     -23.592465      214.78965      1.3740002    
   4905000   96.141801     -29.793246      6.2012243     -23.592021      62.718297      1.3740002    
   4906000   95.368435     -29.743695      6.1513415     -23.592354      82.345748      1.3740002    
   4907000   93.533693     -29.624961      6.0329992     -23.591961      84.31902       1.3740002    
   4908000   92.229187     -29.54128       5.9488575     -23.592423      156.39871      1.3740002    
   4909000   92.51945      -29.559841      5.9675797     -23.592261      167.91121      1.3740002    
   4910000   93.222456     -29.605177      6.0129241     -23.592253      115.501        1.3740002    
   4911000   99.548523     -30.012955      6.4209606     -23.591995     -34.769303      1.3740002    
   4912000   95.635445     -29.760617      6.1685639     -23.592053      109.21995      1.3740002    
   4913000   96.623235     -29.823969      6.2322772     -23.591692      72.182611      1.3740002    
   4914000   92.490994     -29.55833       5.9657443     -23.592586      154.18631      1.3740002    
   4915000   95.533303     -29.754441      6.1619756     -23.592465      75.508596      1.3740002    
   4916000   95.268112     -29.736944      6.1448706     -23.592073      97.667946      1.3740002    
   4917000   93.048718     -29.59435       6.0017179     -23.592632      113.36356      1.3740002    
   4918000   95.267382     -29.737618      6.1448235     -23.592795      76.925092      1.3740002    
   4919000   100.74568     -30.090727      6.4981785     -23.592548     -1.7431391      1.3740002    
   4920000   93.605022     -29.629535      6.0376        -23.591935      153.84627      1.3740002    
   4921000   95.440615     -29.748111      6.1559972     -23.592114      124.1484       1.3740002    
   4922000   97.744092     -29.896934      6.3045733     -23.59236       68.316408      1.3740002    
   4923000   95.207245     -29.733091      6.1409447     -23.592147      133.16606      1.3740002    
   4924000   94.871984     -29.710895      6.11932       -23.591575      68.223128      1.3740002    
   4925000   91.88515      -29.519065      5.9266668     -23.592398      192.42879      1.3740002    
   4926000   92.078797     -29.531309      5.9391572     -23.592152      201.8473       1.3740002    
   4927000   93.378501     -29.615386      6.0229892     -23.592397      130.5992       1.3740002    
   4928000   93.098357     -29.597552      6.0049197     -23.592632      158.89713      1.3740002    
   4929000   97.242839     -29.863963      6.2722421     -23.591721      69.21387       1.3740002    
   4930000   91.279792     -29.480084      5.8876207     -23.592463      182.60211      1.3740002    
   4931000   91.372036     -29.486518      5.8935706     -23.592947      207.27894      1.3740002    
   4932000   97.822878     -29.902531      6.3096551     -23.592876      45.073054      1.3740002    
   4933000   97.066336     -29.853146      6.2608575     -23.592289      61.484015      1.3740002    
   4934000   96.150102     -29.794117      6.2017597     -23.592358      107.74537      1.3740002    
   4935000   93.60714      -29.63018       6.0377366     -23.592444      138.31433      1.3740002    
   4936000   93.416295     -29.617328      6.0254269     -23.591901      202.99704      1.3740002    
   4937000   91.384285     -29.486032      5.8943606     -23.591672      136.85104      1.3740002    
   4938000   96.533818     -29.819026      6.2265097     -23.592516      83.194079      1.3740002    
   4939000   94.448581     -29.684688      6.0920102     -23.592678      123.46375      1.3740002    
   4940000   94.432671     -29.683559      6.090984      -23.592575      107.38396      1.3740002    
   4941000   96.124156     -29.792395      6.2000862     -23.592309      66.416341      1.3740002    
   4942000   98.378914     -29.938005      6.3455199     -23.592485      3.4132288      1.3740002    
   4943000   94.01915      -29.656535      6.0643115     -23.592223      110.61173      1.3740002    
   4944000   95.016703     -29.720608      6.1286545     -23.591953      89.95244       1.3740002    
   4945000   94.372249     -29.679579      6.0870867     -23.592492      110.8767       1.3740002    
   4946000   94.183943     -29.667647      6.0749409     -23.592706      132.3493       1.3740002    
   4947000   93.92455      -29.650103      6.0582098     -23.591893      117.39369      1.3740002    
   4948000   91.873372     -29.518069      5.9259071     -23.592162      233.93532      1.3740002    
   4949000   95.124346     -29.727406      6.1355976     -23.591808      138.33241      1.3740002    
   4950000   93.620798     -29.63082       6.0386175     -23.592203      140.88723      1.3740002    
   4951000   93.848783     -29.645179      6.0533227     -23.591856      107.86721      1.3740002    
   4952000   90.678491     -29.441018      5.8488363     -23.592181      239.3579       1.3740002    
   4953000   94.31082      -29.674957      6.0831245     -23.591833      112.21232      1.3740002    
   4954000   94.535035     -29.689408      6.0975866     -23.591822      124.21724      1.3740002    
   4955000   94.322859     -29.676367      6.083901      -23.592466      114.1596       1.3740002    
   4956000   91.405863     -29.488659      5.8957524     -23.592906      166.96901      1.3740002    
   4957000   90.955772     -29.458862      5.8667212     -23.592141      193.30172      1.3740002    
   4958000   95.676745     -29.763021      6.1712278     -23.591793      102.43681      1.3740002    
   4959000   90.638754     -29.438127      5.8462733     -23.591854      188.68673      1.3740002    
   4960000   96.862425     -29.839838      6.2477051     -23.592133      83.920046      1.3740002    
   4961000   95.877151     -29.776274      6.1841541     -23.59212       71.663451      1.3740002    
   4962000   94.216673     -29.669559      6.077052      -23.592507      83.509005      1.3740002    
   4963000   97.570439     -29.885393      6.2933726     -23.59202       85.136634      1.3740002    
   4964000   94.492265     -29.687333      6.0948278     -23.592505      124.47864      1.3740002    
   4965000   92.539455     -29.561137      5.96887       -23.592267      163.34906      1.3740002    
   4966000   96.405256     -29.809533      6.2182173     -23.591315      108.73596      1.3740002    
   4967000   95.486864     -29.751743      6.1589803     -23.592762      96.419182      1.3740002    
   4968000   90.054652     -29.400668      5.8085982     -23.59207       218.25893      1.3740002    
   4969000   94.447396     -29.684538      6.0919337     -23.592604      169.40175      1.3740002    
   4970000   99.114967     -29.985786      6.3929959     -23.592791     -21.287251      1.3740002    
   4971000   95.990928     -29.783556      6.1914928     -23.592064      134.08943      1.3740002    
   4972000   92.427734     -29.554658      5.9616639     -23.592994      218.18072      1.3740002    
   4973000   95.846089     -29.774929      6.1821506     -23.592778      169.36637      1.3740002    
   4974000   91.317203     -29.482747      5.8900338     -23.592713      196.51174      1.3740002    
   4975000   95.360052     -29.743133      6.1508008     -23.592333      110.34069      1.3740002    
   4976000   95.734723     -29.76747       6.1749674     -23.592502      83.239631      1.3740002    
   4977000   96.227349     -29.799486      6.2067422     -23.592744      88.712094      1.3740002    
   4978000   93.89781      -29.648116      6.056485      -23.591631      150.28004      1.3740002    
   4979000   91.553038     -29.49699       5.9052453     -23.591744      168.71728      1.3740002    
   4980000   93.732561     -29.638228      6.0458263     -23.592402      127.60456      1.3740002    
   4981000   88.669914     -29.311263      5.7192815     -23.591982      277.36917      1.3740002    
   4982000   96.070427     -29.789199      6.1966206     -23.592579      93.442717      1.3740002    
   4983000   92.604719     -29.565846      5.9730796     -23.592767      198.51639      1.3740002    
   4984000   93.38086      -29.615645      6.0231413     -23.592504      128.01192      1.3740002    
   4985000   92.054318     -29.53034       5.9375783     -23.592762      194.5698       1.3740002    
   4986000   93.523716     -29.624554      6.0323556     -23.592199      141.85018      1.3740002    
   4987000   93.37993      -29.615281      6.0230813     -23.5922        93.626933      1.3740002    
   4988000   93.245174     -29.606549      6.0143895     -23.592159      142.15178      1.3740002    
   4989000   96.806533     -29.836031      6.2441        -23.591931      97.546887      1.3740002    
   4990000   92.298803     -29.545559      5.9533478     -23.592211      162.35526      1.3740002    
   4991000   94.310846     -29.675544      6.0831262     -23.592418      134.63708      1.3740002    
   4992000   94.991945     -29.719496      6.1270576     -23.592439      93.319983      1.3740002    
   4993000   92.73242      -29.573353      5.9813164     -23.592037      166.01491      1.3740002    
   4994000   93.325165     -29.611605      6.019549      -23.592056      170.81833      1.3740002    
   4995000   95.602347     -29.758906      6.1664291     -23.592477      98.739648      1.3740002    
   4996000   95.423172     -29.747179      6.1548721     -23.592306      76.721193      1.3740002    
   4997000   92.402561     -29.552448      5.9600403     -23.592407      139.69852      1.3740002    
   4998000   95.217206     -29.73345       6.1415871     -23.591863      140.22657      1.3740002    
   4999000   93.05148      -29.594196      6.001896      -23.5923        173.93719      1.3740002    
   5000000   90.490636     -29.428637      5.8367195     -23.591918      226.67816      1.3740002    
Loop time of 33370.6 on 1 procs for 5000000 steps with 500 atoms

Performance: 12.946 ns/day, 1.854 hours/ns, 149.832 timesteps/s
99.7% CPU use with 1 MPI tasks x 1 OpenMP threads

MPI task timing breakdown:
Section |  min time  |  avg time  |  max time  |%varavg| %total
---------------------------------------------------------------
Pair    | 15585      | 15585      | 15585      |   0.0 | 46.70
Neigh   | 2864       | 2864       | 2864       |   0.0 |  8.58
Comm    | 404.77     | 404.77     | 404.77     |   0.0 |  1.21
Output  | 7.2136     | 7.2136     | 7.2136     |   0.0 |  0.02
Modify  | 14474      | 14474      | 14474      |   0.0 | 43.37
Other   |            | 35.36      |            |       |  0.11

Nlocal:            500 ave         500 max         500 min
Histogram: 1 0 0 0 0 0 0 0 0 0
Nghost:           3776 ave        3776 max        3776 min
Histogram: 1 0 0 0 0 0 0 0 0 0
Neighs:          74314 ave       74314 max       74314 min
Histogram: 1 0 0 0 0 0 0 0 0 0

Total # of neighbors = 74314
Ave neighs/atom = 148.628
Neighbor list builds = 500000
Dangerous builds not checked
Total wall time: 9:16:10
