LAMMPS (15 Sep 2022)
OMP_NUM_THREADS environment is not set. Defaulting to 1 thread. (src/comm.cpp:98)
  using 1 OpenMP thread(s) per MPI task
variable T equal 94.0

units metal
boundary p p p
atom_style atomic

read_data nve.lmp
Reading data file ...
  orthogonal box = (0 0 0) to (23.1206 23.1206 17.34045)
  1 by 1 by 1 MPI processor grid
  reading atoms ...
  192 atoms
  reading velocities ...
  192 velocities
  read_data CPU = 0.045 seconds

neighbor 0.1 bin
neigh_modify delay 10 check no

pair_style lj/cut 15.0
pair_coeff 1 1 0.0103 3.405 15.0

thermo 1000
thermo_style custom step temp pe ke etotal press density

# Calculate the kinetic energy
compute g2 all rdf 1000
fix 1 all nve
fix temp_1 all ave/time 1 10000 10000 c_thermo_temp file temp.dat
fix g2_1 all ave/time 1 5000000 5000000 c_g2[*] file rdf.dat mode vector

dump 1 all custom 1000 argon.dump id type x y z vx vy vz

run 5000000
Generated 0 of 0 mixed pair_coeff terms from geometric mixing rule
Neighbor list info ...
  update: every = 1 steps, delay = 10 steps, check = no
  max neighbors/atom: 2000, page size: 100000
  master list distance cutoff = 15.1
  ghost atom cutoff = 15.1
  binsize = 7.55, bins = 4 4 3
  2 neighbor lists, perpetual/occasional/extra = 1 1 0
  (1) pair lj/cut, perpetual
      attributes: half, newton on
      pair build: half/bin/atomonly/newton
      stencil: half/bin/3d
      bin: standard
  (2) compute rdf, occasional, copy from (1)
      attributes: half, newton on
      pair build: copy
      stencil: none
      bin: none
Per MPI rank memory allocation (min/avg/max) = 3.95 | 3.95 | 3.95 Mbytes
   Step          Temp          PotEng         KinEng         TotEng         Press         Density    
         0   94.000732     -11.423308      2.3207547     -9.1025528      93.262122      1.3740002    
      1000   96.515932     -11.485575      2.3828517     -9.1027236      31.962676      1.3740002    
      2000   91.095658     -11.352179      2.2490322     -9.1031465      77.225676      1.3740002    
      3000   89.366874     -11.308788      2.2063508     -9.1024367      184.67061      1.3740002    
      4000   93.629383     -11.413934      2.3115866     -9.102347       39.642189      1.3740002    
      5000   91.244511     -11.355197      2.2527072     -9.1024896      200.1289       1.3740002    
      6000   87.432296     -11.26096       2.1585886     -9.1023712      268.85538      1.3740002    
      7000   89.435346     -11.310218      2.2080413     -9.1021768      214.56451      1.3740002    
      8000   94.100874     -11.425527      2.3232271     -9.1023002      184.55642      1.3740002    
      9000   95.444747     -11.459245      2.3564055     -9.102839       103.45228      1.3740002    
     10000   103.78512     -11.665093      2.5623184     -9.1027747     -109.66095      1.3740002    
     11000   99.043017     -11.547887      2.4452421     -9.1026452      1.600118       1.3740002    
     12000   101.5628      -11.609966      2.5074522     -9.1025139     -52.752763      1.3740002    
     13000   98.175958     -11.526458      2.4238356     -9.1026226      38.346428      1.3740002    
     14000   95.861865     -11.469265      2.3667036     -9.1025617      142.60252      1.3740002    
     15000   91.759014     -11.367912      2.2654096     -9.1025026      217.89174      1.3740002    
     16000   88.8581       -11.296478      2.1937899     -9.102688       119.75977      1.3740002    
     17000   90.683863     -11.341619      2.2388656     -9.1027538      156.00677      1.3740002    
     18000   86.610186     -11.241005      2.1382918     -9.102713       249.76216      1.3740002    
     19000   94.723732     -11.440977      2.3386046     -9.1023728      57.08266       1.3740002    
     20000   93.670315     -11.41492       2.3125971     -9.102323       54.531238      1.3740002    
     21000   97.059482     -11.498625      2.3962712     -9.1023542      65.370643      1.3740002    
     22000   95.438358     -11.458613      2.3562478     -9.102365       21.58554       1.3740002    
     23000   95.461853     -11.459596      2.3568279     -9.1027679      26.392583      1.3740002    
     24000   95.347215     -11.456506      2.3539976     -9.1025084      47.441719      1.3740002    
     25000   90.001656     -11.324414      2.2220228     -9.1023915      166.55149      1.3740002    
     26000   90.386105     -11.333949      2.2315143     -9.1024343      209.59083      1.3740002    
     27000   97.376772     -11.506811      2.4041047     -9.1027063      64.126004      1.3740002    
     28000   94.715486     -11.441133      2.3384011     -9.1027315      81.271939      1.3740002    
     29000   94.246053     -11.429436      2.3268114     -9.1026251      107.44744      1.3740002    
     30000   97.214164     -11.502449      2.4000901     -9.1023589      78.928085      1.3740002    
     31000   98.174682     -11.526165      2.4238041     -9.1023606      19.483856      1.3740002    
     32000   96.1427       -11.476288      2.3736371     -9.1026507      50.229106      1.3740002    
     33000   96.635945     -11.4884        2.3858147     -9.1025854     -0.18750382     1.3740002    
     34000   87.301963     -11.258003      2.1553709     -9.1026322      314.745        1.3740002    
     35000   96.88416      -11.494558      2.3919428     -9.1026155      48.412855      1.3740002    
     36000   97.151743     -11.501361      2.398549      -9.1028121      4.2764265      1.3740002    
     37000   92.028505     -11.374238      2.272063      -9.1021752      103.803        1.3740002    
     38000   91.85595      -11.370386      2.2678029     -9.1025831      82.214072      1.3740002    
     39000   94.978283     -11.44781       2.3448892     -9.1029211      60.578183      1.3740002    
     40000   96.812558     -11.492755      2.390175      -9.1025804      25.649409      1.3740002    
     41000   93.920795     -11.421367      2.3187812     -9.1025854      116.22579      1.3740002    
     42000   88.779219     -11.294275      2.1918424     -9.1024328      157.0347       1.3740002    
     43000   94.538467     -11.436728      2.3340307     -9.1026972      41.070702      1.3740002    
     44000   95.434335     -11.458835      2.3561485     -9.1026864      31.171856      1.3740002    
     45000   94.789944     -11.443291      2.3402393     -9.1030517     -18.074556      1.3740002    
     46000   87.340894     -11.25882       2.156332      -9.1024882      233.5727       1.3740002    
     47000   95.677212     -11.464989      2.3621448     -9.1028443      74.662953      1.3740002    
     48000   99.566974     -11.560854      2.4581779     -9.1026762     -20.572454      1.3740002    
     49000   102.45464     -11.632028      2.5294706     -9.1025573     -103.09623      1.3740002    
     50000   88.452091     -11.286508      2.183766      -9.1027418      267.08974      1.3740002    
     51000   90.154889     -11.328019      2.2258059     -9.1022126      115.62547      1.3740002    
     52000   97.436766     -11.508138      2.4055859     -9.1025524     -38.850787      1.3740002    
     53000   96.043071     -11.473968      2.3711774     -9.1027904      66.694876      1.3740002    
     54000   94.873703     -11.444621      2.3423072     -9.1023133      73.831096      1.3740002    
     55000   95.69306      -11.464952      2.3625361     -9.1024154      23.444016      1.3740002    
     56000   103.83878     -11.666136      2.5636433     -9.1024929     -148.21425      1.3740002    
     57000   88.146277     -11.278639      2.1762159     -9.1024236      235.1693       1.3740002    
     58000   100.80223     -11.591563      2.4886747     -9.1028885     -30.486097      1.3740002    
     59000   90.397227     -11.33453       2.2317889     -9.1027409      150.34023      1.3740002    
     60000   92.370016     -11.383186      2.2804945     -9.1026911      91.594101      1.3740002    
     61000   99.334086     -11.555041      2.4524282     -9.1026128     -26.175989      1.3740002    
     62000   92.195994     -11.379046      2.2761981     -9.1028478      221.3237       1.3740002    
     63000   97.498438     -11.509924      2.4071085     -9.1028152      13.0512        1.3740002    
     64000   95.716086     -11.465881      2.3631046     -9.1027761      6.5182499      1.3740002    
     65000   93.159673     -11.403019      2.2999901     -9.1030294      167.8316       1.3740002    
     66000   90.756608     -11.343447      2.2406616     -9.1027852      145.45235      1.3740002    
     67000   92.582541     -11.388052      2.2857414     -9.1023104      119.79386      1.3740002    
     68000   94.870731     -11.445001      2.3422338     -9.1027669      138.6007       1.3740002    
     69000   92.259084     -11.379971      2.2777557     -9.1022152      182.25103      1.3740002    
     70000   94.12628      -11.426359      2.3238543     -9.1025048      64.481691      1.3740002    
     71000   93.599797     -11.413452      2.3108562     -9.1025962      134.06888      1.3740002    
     72000   94.665395     -11.439634      2.3371644     -9.1024698      17.164885      1.3740002    
     73000   99.511911     -11.559471      2.4568185     -9.1026527     -37.611371      1.3740002    
     74000   94.9032       -11.445734      2.3430355     -9.1026981      186.60058      1.3740002    
     75000   94.541691     -11.436476      2.3341103     -9.1023661      57.768637      1.3740002    
     76000   88.861504     -11.296429      2.1938739     -9.102555       182.70595      1.3740002    
     77000   92.651162     -11.389701      2.2874356     -9.1022658      108.59461      1.3740002    
     78000   90.469257     -11.33613       2.2335672     -9.1025632      199.00194      1.3740002    
     79000   87.975997     -11.274365      2.1720119     -9.1023529      171.4247       1.3740002    
     80000   95.144242     -11.451913      2.3489865     -9.1029262      61.968943      1.3740002    
     81000   96.906606     -11.495022      2.3924969     -9.1025247     -27.843122      1.3740002    
     82000   99.413535     -11.556886      2.4543897     -9.1024958     -77.849825      1.3740002    
     83000   94.502649     -11.435823      2.3331464     -9.1026769      70.797916      1.3740002    
     84000   89.878662     -11.321255      2.2189862     -9.1022689      164.96315      1.3740002    
     85000   99.505373     -11.559301      2.4566571     -9.1026436     -20.259211      1.3740002    
     86000   94.953859     -11.447125      2.3442862     -9.1028391      61.524377      1.3740002    
     87000   92.81125      -11.393902      2.291388      -9.1025138      134.77888      1.3740002    
     88000   95.777623     -11.467105      2.3646238     -9.1024812      113.90353      1.3740002    
     89000   94.820065     -11.443692      2.340983      -9.1027092      81.491498      1.3740002    
     90000   91.957825     -11.372722      2.270318      -9.1024036      182.7559       1.3740002    
     91000   94.58268      -11.437224      2.3351223     -9.1021017      70.858409      1.3740002    
     92000   92.877913     -11.395535      2.2930338     -9.1025013      45.663799      1.3740002    
     93000   97.117476     -11.50077       2.397703      -9.1030669     -3.5564425      1.3740002    
     94000   87.065444     -11.252321      2.1495315     -9.1027892      300.34819      1.3740002    
     95000   97.401516     -11.507256      2.4047156     -9.10254        73.416241      1.3740002    
     96000   97.109943     -11.500222      2.3975171     -9.102705      -25.439415      1.3740002    
     97000   91.877946     -11.370808      2.2683459     -9.102462       210.71131      1.3740002    
     98000   89.340214     -11.307988      2.2056926     -9.1022957      212.41543      1.3740002    
     99000   97.066786     -11.498846      2.3964516     -9.1023948      91.395677      1.3740002    
    100000   91.759255     -11.367937      2.2654156     -9.1025213      136.07674      1.3740002    
    101000   96.625995     -11.488342      2.385569      -9.1027729     -13.709731      1.3740002    
    102000   92.616757     -11.389197      2.2865862     -9.1026108      62.30974       1.3740002    
    103000   88.062207     -11.276745      2.1741403     -9.1026051      205.43905      1.3740002    
    104000   93.019534     -11.398956      2.2965302     -9.1024256      117.22168      1.3740002    
    105000   91.148788     -11.352951      2.250344      -9.102607       173.34678      1.3740002    
    106000   88.955755     -11.29884       2.1962009     -9.1026389      246.77336      1.3740002    
    107000   97.242618     -11.503296      2.4007926     -9.1025032     -35.492349      1.3740002    
    108000   93.407585     -11.408996      2.3061107     -9.102885       80.233813      1.3740002    
    109000   92.767854     -11.393251      2.2903166     -9.1029347      97.397034      1.3740002    
    110000   92.229481     -11.379532      2.2770249     -9.1025069      97.415301      1.3740002    
    111000   94.714935     -11.441111      2.3383874     -9.1027232      45.023472      1.3740002    
    112000   84.735537     -11.194187      2.0920092     -9.1021773      360.091        1.3740002    
    113000   86.637528     -11.241275      2.1389669     -9.1023077      266.91847      1.3740002    
    114000   94.622171     -11.438637      2.3360972     -9.1025399      58.084168      1.3740002    
    115000   98.349601     -11.530674      2.4281226     -9.1025514     -74.558954      1.3740002    
    116000   86.099194     -11.228248      2.1256761     -9.1025723      281.42923      1.3740002    
    117000   91.582742     -11.363792      2.2610577     -9.1027338      206.68025      1.3740002    
    118000   86.80062      -11.245621      2.1429934     -9.1026275      259.90998      1.3740002    
    119000   91.504588     -11.361477      2.2591282     -9.1023484      158.6739       1.3740002    
    120000   103.95553     -11.669044      2.5665256     -9.1025183     -208.45338      1.3740002    
    121000   99.640429     -11.562569      2.4599914     -9.1025775     -94.000035      1.3740002    
    122000   94.330161     -11.431551      2.3288879     -9.1026636      127.6015       1.3740002    
    123000   94.797265     -11.442695      2.3404201     -9.1022751      87.715524      1.3740002    
    124000   96.588344     -11.487153      2.3846394     -9.1025131      7.0391321      1.3740002    
    125000   94.136602     -11.426982      2.3241092     -9.1028724      96.834326      1.3740002    
    126000   93.638634     -11.414172      2.311815      -9.102357       82.770102      1.3740002    
    127000   91.825214     -11.369379      2.267044      -9.1023352      124.85656      1.3740002    
    128000   88.665458     -11.291829      2.1890338     -9.1027956      270.79382      1.3740002    
    129000   99.621099     -11.562042      2.4595142     -9.1025276     -38.294712      1.3740002    
    130000   90.701589     -11.341783      2.2393032     -9.1024794      235.88975      1.3740002    
    131000   92.866495     -11.395318      2.2927519     -9.1025664      114.28568      1.3740002    
    132000   95.103858     -11.451026      2.3479894     -9.1030366      13.305188      1.3740002    
    133000   88.456409     -11.286586      2.1838727     -9.1027136      184.53602      1.3740002    
    134000   92.498171     -11.386423      2.2836585     -9.1027648      107.6273       1.3740002    
    135000   96.677998     -11.489605      2.3868529     -9.1027521      121.72313      1.3740002    
    136000   86.9365       -11.248988      2.1463481     -9.10264        234.2544       1.3740002    
    137000   95.52506      -11.460969      2.3583884     -9.1025801      8.2776948      1.3740002    
    138000   90.603582     -11.339584      2.2368835     -9.1027007      177.48345      1.3740002    
    139000   87.580201     -11.265107      2.1622402     -9.1028666      282.94955      1.3740002    
    140000   93.617431     -11.413764      2.3112915     -9.1024728      152.1767       1.3740002    
    141000   90.912423     -11.347355      2.2445084     -9.1028466      171.78944      1.3740002    
    142000   96.094296     -11.474656      2.3724421     -9.1022143      32.505956      1.3740002    
    143000   98.073328     -11.523697      2.4213018     -9.1023951     -18.891614      1.3740002    
    144000   97.496146     -11.509672      2.4070519     -9.1026204     -6.7431159      1.3740002    
    145000   90.545905     -11.337896      2.2354596     -9.1024368      136.466        1.3740002    
    146000   87.483794     -11.262399      2.1598601     -9.1025394      245.06086      1.3740002    
    147000   93.79419      -11.418293      2.3156555     -9.1026372      107.37645      1.3740002    
    148000   97.176145     -11.501713      2.3991515     -9.1025611     -26.509639      1.3740002    
    149000   96.905668     -11.495022      2.3924738     -9.1025485     -60.013815      1.3740002    
    150000   93.29972      -11.406049      2.3034477     -9.1026017      47.839429      1.3740002    
    151000   91.642358     -11.365199      2.2625296     -9.1026698      130.10045      1.3740002    
    152000   92.527878     -11.386915      2.2843919     -9.1025229      154.14772      1.3740002    
    153000   94.837059     -11.443876      2.3414025     -9.1024735      48.699085      1.3740002    
    154000   92.402141     -11.384004      2.2812876     -9.1027164      155.07908      1.3740002    
    155000   97.027594     -11.497935      2.395484      -9.1024513      77.685368      1.3740002    
    156000   88.79818      -11.294903      2.1923105     -9.1025929      222.96915      1.3740002    
    157000   93.74745      -11.417245      2.3145015     -9.1027431      99.23392       1.3740002    
    158000   87.325179     -11.258575      2.1559441     -9.1026311      274.52078      1.3740002    
    159000   89.419413     -11.310294      2.207648      -9.102646       230.98299      1.3740002    
    160000   93.193157     -11.403531      2.3008168     -9.1027146      62.414675      1.3740002    
    161000   95.140589     -11.451523      2.3488963     -9.102627       81.884337      1.3740002    
    162000   95.665306     -11.464421      2.3618509     -9.1025705      49.721296      1.3740002    
    163000   97.960573     -11.520971      2.418518      -9.1024528      17.749513      1.3740002    
    164000   98.024322     -11.522963      2.4200919     -9.1028712      13.054679      1.3740002    
    165000   95.897451     -11.469884      2.3675822     -9.1023023      6.1830443      1.3740002    
    166000   93.253721     -11.404884      2.302312      -9.1025721      152.75836      1.3740002    
    167000   95.328923     -11.456147      2.353546      -9.1026012     -11.932205      1.3740002    
    168000   96.082004     -11.474711      2.3721386     -9.1025725      37.625032      1.3740002    
    169000   94.345613     -11.431995      2.3292694     -9.1027254      19.099005      1.3740002    
    170000   88.232899     -11.280915      2.1783545     -9.1025604      189.0382       1.3740002    
    171000   90.625505     -11.340093      2.2374248     -9.1026685      125.57547      1.3740002    
    172000   84.36752      -11.185013      2.0829234     -9.1020893      295.57991      1.3740002    
    173000   96.942501     -11.49591       2.3933831     -9.1025273     -32.691773      1.3740002    
    174000   88.231819     -11.280768      2.1783278     -9.1024401      164.98899      1.3740002    
    175000   95.09817      -11.45039       2.347849      -9.1025414      51.276155      1.3740002    
    176000   90.133136     -11.327866      2.2252689     -9.1025974      174.06982      1.3740002    
    177000   89.098039     -11.302362      2.1997137     -9.1026481      189.23044      1.3740002    
    178000   93.220488     -11.403633      2.3014915     -9.102142       126.40483      1.3740002    
    179000   95.400238     -11.457426      2.3553067     -9.1021192      105.10192      1.3740002    
    180000   90.192945     -11.329284      2.2267455     -9.1025387      184.62292      1.3740002    
    181000   102.83261     -11.641698      2.5388021     -9.1028956     -42.932326      1.3740002    
    182000   89.828432     -11.320208      2.2177461     -9.1024618      229.02894      1.3740002    
    183000   89.458333     -11.310795      2.2086089     -9.1021858      266.96624      1.3740002    
    184000   96.513501     -11.485594      2.3827917     -9.1028022      9.8560996      1.3740002    
    185000   90.408411     -11.334912      2.232065      -9.1028471      125.6722       1.3740002    
    186000   97.632748     -11.513034      2.4104244     -9.1026094      89.057635      1.3740002    
    187000   95.212483     -11.453121      2.3506713     -9.10245        77.227626      1.3740002    
    188000   88.99313      -11.299711      2.1971236     -9.102587       245.3469       1.3740002    
    189000   92.701312     -11.391223      2.2886737     -9.1025495      94.262481      1.3740002    
    190000   94.889894     -11.444936      2.3427069     -9.1022286      97.43334       1.3740002    
    191000   90.211373     -11.329739      2.2272004     -9.1025382      183.80201      1.3740002    
    192000   94.620991     -11.438608      2.3360681     -9.1025401      101.04779      1.3740002    
    193000   88.508378     -11.287581      2.1851557     -9.1024249      327.3719       1.3740002    
    194000   93.55757      -11.41232       2.3098136     -9.102506       121.98701      1.3740002    
    195000   98.327682     -11.529856      2.4275814     -9.1022743      38.31846       1.3740002    
    196000   92.003964     -11.373853      2.2714571     -9.1023955      171.03511      1.3740002    
    197000   93.467815     -11.410286      2.3075977     -9.1026883      56.080621      1.3740002    
    198000   96.288383     -11.479601      2.3772338     -9.1023673      101.52639      1.3740002    
    199000   96.654644     -11.488742      2.3862763     -9.1024653      19.139801      1.3740002    
    200000   96.935494     -11.495919      2.3932101     -9.1027089      59.178071      1.3740002    
    201000   91.018149     -11.349441      2.2471186     -9.1023225      153.92756      1.3740002    
    202000   92.188513     -11.378334      2.2760134     -9.1023202      108.64596      1.3740002    
    203000   87.009036     -11.250604      2.1481389     -9.1024652      292.44191      1.3740002    
    204000   96.970546     -11.496238      2.3940755     -9.102162       47.110583      1.3740002    
    205000   91.7272       -11.367198      2.2646242     -9.1025739      98.717935      1.3740002    
    206000   90.688155     -11.341206      2.2389715     -9.1022346      152.40948      1.3740002    
    207000   95.282026     -11.454721      2.3523882     -9.102333       56.299011      1.3740002    
    208000   90.867023     -11.346001      2.2433876     -9.1026139      275.09874      1.3740002    
    209000   97.237618     -11.503244      2.4006692     -9.1025746      92.849829      1.3740002    
    210000   86.906424     -11.248419      2.1456056     -9.1028139      192.23166      1.3740002    
    211000   89.34421      -11.308068      2.2057913     -9.1022769      178.45968      1.3740002    
    212000   97.067423     -11.499136      2.3964673     -9.1026689      37.515115      1.3740002    
    213000   100.56801     -11.585156      2.4828922     -9.1022639     -83.25591       1.3740002    
    214000   93.460245     -11.410296      2.3074108     -9.1028853      112.3512       1.3740002    
    215000   94.007268     -11.423378      2.3209161     -9.1024621      108.55305      1.3740002    
    216000   88.521589     -11.288039      2.1854819     -9.1025575      189.47107      1.3740002    
    217000   91.399153     -11.358879      2.2565251     -9.1023539      171.94499      1.3740002    
    218000   94.368023     -11.432266      2.3298226     -9.1024438      136.06451      1.3740002    
    219000   90.32207      -11.332371      2.2299334     -9.1024378      205.73231      1.3740002    
    220000   92.941881     -11.397423      2.2946131     -9.1028095      87.311606      1.3740002    
    221000   92.449902     -11.385058      2.2824668     -9.1025915      105.24189      1.3740002    
    222000   92.705317     -11.391382      2.2887726     -9.1026092      131.3945       1.3740002    
    223000   89.209088     -11.3053        2.2024553     -9.1028446      233.46856      1.3740002    
    224000   93.689258     -11.415735      2.3130648     -9.1026701      156.27053      1.3740002    
    225000   91.247184     -11.355319      2.2527732     -9.1025453      189.02502      1.3740002    
    226000   89.676471     -11.316737      2.2139944     -9.102743       219.14083      1.3740002    
    227000   97.55901      -11.510917      2.4086039     -9.1023135      73.140054      1.3740002    
    228000   93.233348     -11.404474      2.301809      -9.1026651      124.73034      1.3740002    
    229000   90.929296     -11.347718      2.244925      -9.1027933      175.83789      1.3740002    
    230000   93.24974      -11.404958      2.3022137     -9.1027438      59.941736      1.3740002    
    231000   96.41264      -11.482841      2.3803016     -9.1025396      81.400375      1.3740002    
    232000   90.58643      -11.338831      2.2364601     -9.1023706      180.07602      1.3740002    
    233000   91.236134     -11.354733      2.2525004     -9.1022325      131.39279      1.3740002    
    234000   95.459416     -11.459246      2.3567677     -9.1024785      94.025969      1.3740002    
    235000   95.961721     -11.471765      2.369169      -9.1025957      76.998674      1.3740002    
    236000   89.881527     -11.321599      2.2190569     -9.102542       211.72378      1.3740002    
    237000   94.452699     -11.434557      2.3319132     -9.1026435      102.73962      1.3740002    
    238000   91.547898     -11.362745      2.2601975     -9.102548       119.92921      1.3740002    
    239000   92.08435      -11.37598       2.2734418     -9.1025377      119.89716      1.3740002    
    240000   97.499271     -11.509316      2.4071291     -9.1021872      72.952438      1.3740002    
    241000   93.447502     -11.409846      2.3070962     -9.1027499      167.63316      1.3740002    
    242000   84.252611     -11.182984      2.0800864     -9.1028973      296.60213      1.3740002    
    243000   84.878762     -11.198289      2.0955453     -9.102744       277.07141      1.3740002    
    244000   94.421887     -11.433877      2.3311525     -9.1027245      93.206744      1.3740002    
    245000   95.542006     -11.461309      2.3588067     -9.1025025      52.471767      1.3740002    
    246000   93.785967     -11.418131      2.3154524     -9.102679       88.213908      1.3740002    
    247000   90.522473     -11.337408      2.2348811     -9.1025267      138.5636       1.3740002    
    248000   94.712403     -11.440744      2.3383249     -9.1024191      88.231888      1.3740002    
    249000   91.996145     -11.373849      2.2712641     -9.1025848      195.24161      1.3740002    
    250000   95.999571     -11.472481      2.3701034     -9.1023777      68.161116      1.3740002    
    251000   95.505941     -11.460991      2.3579164     -9.1030748      40.242656      1.3740002    
    252000   90.73908      -11.342738      2.2402288     -9.1025087      157.37994      1.3740002    
    253000   96.40431      -11.482783      2.3800959     -9.1026875      55.345553      1.3740002    
    254000   98.821723     -11.54236       2.4397786     -9.102581      -64.597498      1.3740002    
    255000   99.742937     -11.565689      2.4625222     -9.1031671     -120.80312      1.3740002    
    256000   93.282559     -11.405533      2.303024      -9.1025091      64.171772      1.3740002    
    257000   98.500822     -11.534314      2.431856      -9.1024575     -47.371803      1.3740002    
    258000   88.291183     -11.282379      2.1797934     -9.102586       187.68892      1.3740002    
    259000   92.24573      -11.379751      2.277426      -9.1023245      125.61929      1.3740002    
    260000   90.894038     -11.346616      2.2440545     -9.1025617      159.0188       1.3740002    
    261000   91.454914     -11.360567      2.2579018     -9.1026649      115.43255      1.3740002    
    262000   92.631845     -11.38955       2.2869587     -9.1025915      143.30195      1.3740002    
    263000   93.097425     -11.400769      2.2984533     -9.1023153      107.95866      1.3740002    
    264000   95.149385     -11.451721      2.3491134     -9.1026072      81.61844       1.3740002    
    265000   93.312308     -11.40608       2.3037584     -9.1023215      116.30568      1.3740002    
    266000   90.133102     -11.327901      2.225268      -9.1026327      174.04472      1.3740002    
    267000   94.14464      -11.426823      2.3243076     -9.102515       116.47438      1.3740002    
    268000   89.325317     -11.307828      2.2053248     -9.1025036      224.20764      1.3740002    
    269000   98.478778     -11.533864      2.4313118     -9.102552      -2.4544162      1.3740002    
    270000   92.839459     -11.394928      2.2920844     -9.1028439      156.48797      1.3740002    
    271000   94.115546     -11.426269      2.3235893     -9.1026799      120.57519      1.3740002    
    272000   92.572977     -11.38856       2.2855053     -9.103055       106.90843      1.3740002    
    273000   91.406735     -11.359119      2.2567123     -9.1024071      170.07205      1.3740002    
    274000   90.26678      -11.330605      2.2285683     -9.1020369      260.52227      1.3740002    
    275000   96.190639     -11.47747       2.3748206     -9.1026493      52.143123      1.3740002    
    276000   98.18083      -11.526839      2.4239558     -9.1028834      26.996269      1.3740002    
    277000   91.814736     -11.369535      2.2667853     -9.1027498      83.600599      1.3740002    
    278000   96.300528     -11.479924      2.3775337     -9.1023907     -0.98700395     1.3740002    
    279000   94.591628     -11.437961      2.3353432     -9.1026178      63.829247      1.3740002    
    280000   91.700538     -11.366653      2.2639659     -9.1026868      170.47501      1.3740002    
    281000   90.980614     -11.348528      2.246192      -9.1023364      159.10782      1.3740002    
    282000   90.72205      -11.342306      2.2398084     -9.1024976      179.4872       1.3740002    
    283000   101.6009      -11.610998      2.5083929     -9.1026056     -129.59017      1.3740002    
    284000   90.031734     -11.32506       2.2227654     -9.1022944      177.6219       1.3740002    
    285000   91.457989     -11.360172      2.2579777     -9.1021945      139.56822      1.3740002    
    286000   97.684499     -11.5142        2.4117021     -9.1024978      47.506681      1.3740002    
    287000   101.66569     -11.612596      2.5099925     -9.1026034     -73.005373      1.3740002    
    288000   94.115674     -11.426075      2.3235925     -9.1024825      131.20587      1.3740002    
    289000   93.454627     -11.410001      2.3072721     -9.1027287      145.3852       1.3740002    
    290000   98.864748     -11.543254      2.4408409     -9.1024132      21.582381      1.3740002    
    291000   94.291336     -11.430514      2.3279293     -9.1025846      192.33167      1.3740002    
    292000   97.934723     -11.520186      2.4178798     -9.1023058      58.743549      1.3740002    
    293000   93.784092     -11.41792       2.3154062     -9.1025135      92.274904      1.3740002    
    294000   90.712963     -11.342277      2.239584      -9.1026926      152.70397      1.3740002    
    295000   90.394761     -11.334478      2.231728      -9.1027503      195.62696      1.3740002    
    296000   97.882076     -11.518864      2.41658       -9.1022836     -21.403775      1.3740002    
    297000   87.678348     -11.267022      2.1646633     -9.1023583      247.53812      1.3740002    
    298000   95.628752     -11.463221      2.3609484     -9.1022729      129.34332      1.3740002    
    299000   91.820818     -11.369493      2.2669355     -9.102558       154.17418      1.3740002    
    300000   92.135371     -11.377192      2.2747014     -9.1024901      127.2488       1.3740002    
    301000   93.65109      -11.41495       2.3121225     -9.1028272      153.01105      1.3740002    
    302000   90.978648     -11.349075      2.2461434     -9.1029316      134.06767      1.3740002    
    303000   95.444197     -11.458878      2.356392      -9.1024864      105.3497       1.3740002    
    304000   92.798849     -11.393567      2.2910818     -9.1024855      185.92148      1.3740002    
    305000   94.871171     -11.444807      2.3422447     -9.1025619      115.90284      1.3740002    
    306000   99.430776     -11.557098      2.4548154     -9.1022828      3.5886836      1.3740002    
    307000   85.034423     -11.202056      2.0993883     -9.1026678      283.26552      1.3740002    
    308000   96.386034     -11.482358      2.3796447     -9.1027134      29.139409      1.3740002    
    309000   95.437388     -11.458925      2.3562239     -9.1027011      22.490445      1.3740002    
    310000   98.504374     -11.534824      2.4319437     -9.1028799      10.137619      1.3740002    
    311000   92.066314     -11.375425      2.2729965     -9.1024285      107.16837      1.3740002    
    312000   85.738575     -11.219393      2.1167729     -9.1026204      298.49946      1.3740002    
    313000   96.76837      -11.491831      2.3890841     -9.1027471      58.088899      1.3740002    
    314000   86.252826     -11.231724      2.1294691     -9.1022553      268.66106      1.3740002    
    315000   95.139026     -11.451187      2.3488577     -9.1023291      63.998405      1.3740002    
    316000   86.135429     -11.228577      2.1265707     -9.1020064      315.86683      1.3740002    
    317000   90.347825     -11.332962      2.2305692     -9.1023926      233.1553       1.3740002    
    318000   89.344718     -11.307995      2.2058038     -9.1021912      218.8738       1.3740002    
    319000   95.672693     -11.46445       2.3620332     -9.1024168      41.79762       1.3740002    
    320000   95.618201     -11.46313       2.3606879     -9.1024418      57.791445      1.3740002    
    321000   95.863164     -11.469619      2.3667357     -9.1028829      44.309854      1.3740002    
    322000   88.784705     -11.294136      2.1919778     -9.1021586      205.47632      1.3740002    
    323000   90.446962     -11.33556       2.2330168     -9.1025435      160.30958      1.3740002    
    324000   97.067922     -11.498903      2.3964796     -9.1024235      86.436766      1.3740002    
    325000   91.544265     -11.362643      2.2601078     -9.1025354      177.37855      1.3740002    
    326000   96.053674     -11.474208      2.3714392     -9.1027691      38.614875      1.3740002    
    327000   90.701295     -11.342094      2.2392959     -9.1027982      114.15342      1.3740002    
    328000   91.163598     -11.353324      2.2507096     -9.102614       133.56788      1.3740002    
    329000   92.91067      -11.396557      2.2938425     -9.102714       130.64566      1.3740002    
    330000   92.258369     -11.379914      2.2777381     -9.1021764      180.35556      1.3740002    
    331000   92.377374     -11.383404      2.2806761     -9.102728       177.68203      1.3740002    
    332000   87.828515     -11.270625      2.1683708     -9.1022543      226.70907      1.3740002    
    333000   96.116739     -11.475256      2.3729962     -9.10226        40.043502      1.3740002    
    334000   97.360852     -11.506558      2.4037117     -9.1028459      29.050906      1.3740002    
    335000   95.336636     -11.456285      2.3537364     -9.1025488      85.043872      1.3740002    
    336000   94.147006     -11.427181      2.324366      -9.1028147      43.818852      1.3740002    
    337000   87.488187     -11.26259       2.1599685     -9.1026214      237.4344       1.3740002    
    338000   94.216185     -11.428743      2.326074      -9.1026692      142.99777      1.3740002    
    339000   87.104834     -11.253144      2.150504      -9.1026398      239.06638      1.3740002    
    340000   98.182612     -11.526479      2.4239998     -9.1024787      7.1253394      1.3740002    
    341000   93.716139     -11.416215      2.3137285     -9.1024869      113.68398      1.3740002    
    342000   96.087893     -11.474658      2.372284      -9.1023741      64.876441      1.3740002    
    343000   98.3295       -11.530424      2.4276263     -9.1027982     -0.80215058     1.3740002    
    344000   88.900169     -11.297682      2.1948285     -9.1028534      179.16995      1.3740002    
    345000   96.439149     -11.483873      2.380956      -9.1029175     -6.8041354      1.3740002    
    346000   98.364515     -11.531114      2.4284908     -9.1026232     -11.718203      1.3740002    
    347000   98.10246      -11.52474       2.422021      -9.1027194      41.190428      1.3740002    
    348000   93.34938      -11.407369      2.3046737     -9.1026958      159.79226      1.3740002    
    349000   94.800776     -11.443098      2.3405068     -9.1025917      88.037719      1.3740002    
    350000   84.367858     -11.185653      2.0829317     -9.1027209      386.10319      1.3740002    
    351000   90.749658     -11.343036      2.24049       -9.1025461      196.97257      1.3740002    
    352000   98.42008      -11.532698      2.4298626     -9.102835      -32.706496      1.3740002    
    353000   92.308688     -11.381534      2.2789804     -9.1025537      169.11902      1.3740002    
    354000   98.124674     -11.525121      2.4225694     -9.1025511     -2.8986958      1.3740002    
    355000   90.219978     -11.329996      2.2274129     -9.1025827      186.96219      1.3740002    
    356000   90.897678     -11.346725      2.2441444     -9.1025806      130.68898      1.3740002    
    357000   93.25056      -11.404841      2.302234      -9.1026066      81.023661      1.3740002    
    358000   93.226895     -11.40436       2.3016497     -9.1027104      108.55665      1.3740002    
    359000   91.076544     -11.351047      2.2485603     -9.1024865      198.52151      1.3740002    
    360000   90.887788     -11.346509      2.2439002     -9.102609       127.28004      1.3740002    
    361000   98.675001     -11.538198      2.4361563     -9.1020419     -4.8366017      1.3740002    
    362000   89.348152     -11.308244      2.2058886     -9.1023556      115.96913      1.3740002    
    363000   89.214678     -11.305404      2.2025933     -9.1028108      194.62849      1.3740002    
    364000   94.640641     -11.439232      2.3365532     -9.1026784      48.689049      1.3740002    
    365000   97.535795     -11.510633      2.4080308     -9.1026024     -15.749921      1.3740002    
    366000   92.177485     -11.378046      2.2757411     -9.1023051      189.65534      1.3740002    
    367000   101.63385     -11.612253      2.5092064     -9.1030469     -50.519055      1.3740002    
    368000   96.565282     -11.486532      2.3840701     -9.102462       44.135698      1.3740002    
    369000   98.39381      -11.53192       2.429214      -9.1027064     -41.246962      1.3740002    
    370000   94.593527     -11.438278      2.33539       -9.1028884      100.86872      1.3740002    
    371000   93.337829     -11.406995      2.3043885     -9.1026063      119.18242      1.3740002    
    372000   91.298788     -11.356699      2.2540473     -9.1026522      188.94632      1.3740002    
    373000   93.189992     -11.403306      2.3007386     -9.1025679      93.482993      1.3740002    
    374000   86.101056     -11.228016      2.1257221     -9.1022938      234.18854      1.3740002    
    375000   93.647331     -11.415011      2.3120297     -9.1029817      105.07746      1.3740002    
    376000   89.703344     -11.317179      2.2146578     -9.1025207      144.5886       1.3740002    
    377000   98.288319     -11.529453      2.4266096     -9.1028431     -51.855391      1.3740002    
    378000   95.547874     -11.461907      2.3589516     -9.1029554      93.395536      1.3740002    
    379000   92.324652     -11.3821        2.2793745     -9.1027251      119.69036      1.3740002    
    380000   99.299611     -11.554068      2.4515771     -9.1024911     -7.4078931      1.3740002    
    381000   97.495589     -11.509329      2.4070381     -9.1022904      14.879543      1.3740002    
    382000   93.943744     -11.422033      2.3193478     -9.1026849      72.39163       1.3740002    
    383000   98.127568     -11.525341      2.4226409     -9.1027001      59.349009      1.3740002    
    384000   89.164133     -11.304144      2.2013454     -9.1027982      189.25398      1.3740002    
    385000   86.413338     -11.236086      2.1334319     -9.1026536      293.98521      1.3740002    
    386000   93.443819     -11.410011      2.3070053     -9.1030057      151.23105      1.3740002    
    387000   94.082045     -11.425696      2.3227622     -9.1029335      86.206762      1.3740002    
    388000   95.15522      -11.451676      2.3492575     -9.1024187      82.322755      1.3740002    
    389000   94.506595     -11.435429      2.3332438     -9.102185       52.939936      1.3740002    
    390000   94.387434     -11.433296      2.3303019     -9.1029943      78.553543      1.3740002    
    391000   96.267209     -11.479051      2.376711      -9.1023399      54.763231      1.3740002    
    392000   94.340867     -11.431646      2.3291522     -9.1024933      127.30439      1.3740002    
    393000   91.799059     -11.369127      2.2663983     -9.1027285      113.44177      1.3740002    
    394000   99.198687     -11.552006      2.4490854     -9.1029209      40.17569       1.3740002    
    395000   94.476412     -11.434782      2.3324986     -9.1022833      120.2488       1.3740002    
    396000   88.987717     -11.299545      2.19699       -9.1025553      228.91554      1.3740002    
    397000   94.023811     -11.423992      2.3213245     -9.1026672      106.14416      1.3740002    
    398000   94.0524       -11.424883      2.3220303     -9.1028526      18.203189      1.3740002    
    399000   94.090074     -11.425906      2.3229604     -9.102946       105.85917      1.3740002    
    400000   92.575416     -11.388         2.2855655     -9.1024348      150.40533      1.3740002    
    401000   92.269256     -11.380492      2.2780069     -9.1024853      138.51792      1.3740002    
    402000   93.750068     -11.41729       2.3145662     -9.1027237      78.983595      1.3740002    
    403000   95.782399     -11.467245      2.3647417     -9.1025028      49.458994      1.3740002    
    404000   88.055893     -11.276456      2.1739844     -9.1024718      164.85911      1.3740002    
    405000   91.554052     -11.363169      2.2603494     -9.1028196      109.11108      1.3740002    
    406000   93.037275     -11.399254      2.2969682     -9.1022857      100.04661      1.3740002    
    407000   98.993929     -11.546457      2.4440302     -9.1024266     -32.241715      1.3740002    
    408000   91.444764     -11.359922      2.2576512     -9.1022709      144.23433      1.3740002    
    409000   89.10505      -11.302262      2.1998868     -9.1023748      213.28931      1.3740002    
    410000   97.101642     -11.500114      2.3973121     -9.1028022      21.694607      1.3740002    
    411000   95.905691     -11.469994      2.3677856     -9.1022081      111.30356      1.3740002    
    412000   95.101615     -11.450532      2.3479341     -9.1025984      71.097984      1.3740002    
    413000   87.74043      -11.268756      2.1661961     -9.10256        301.4467       1.3740002    
    414000   91.874445     -11.371351      2.2682595     -9.1030915      97.260207      1.3740002    
    415000   101.75748     -11.615306      2.5122587     -9.1030477     -90.670773      1.3740002    
    416000   96.638281     -11.488887      2.3858723     -9.1030149     -6.9282821      1.3740002    
    417000   90.938764     -11.347354      2.2451588     -9.1021957      163.82484      1.3740002    
    418000   95.848208     -11.468931      2.3663665     -9.102564       85.498955      1.3740002    
    419000   91.989211     -11.373547      2.2710929     -9.1024543      151.42715      1.3740002    
    420000   91.262673     -11.355353      2.2531556     -9.1021977      173.76725      1.3740002    
    421000   95.648794     -11.463833      2.3614432     -9.1023898      91.373339      1.3740002    
    422000   95.434027     -11.458673      2.3561409     -9.1025326      49.7948        1.3740002    
    423000   90.03052      -11.325432      2.2227354     -9.1026964      189.14989      1.3740002    
    424000   94.479216     -11.435355      2.3325679     -9.1027867      50.045112      1.3740002    
    425000   93.748431     -11.416917      2.3145257     -9.1023915      171.23425      1.3740002    
    426000   102.13023     -11.623836      2.5214613     -9.1023751     -125.89618      1.3740002    
    427000   89.905597     -11.322212      2.2196512     -9.1025611      158.32042      1.3740002    
    428000   93.443565     -11.409558      2.306999      -9.1025595      93.471328      1.3740002    
    429000   92.689025     -11.390953      2.2883704     -9.1025828      125.11436      1.3740002    
    430000   92.127156     -11.377149      2.2744986     -9.1026505      81.89474       1.3740002    
    431000   96.235102     -11.478419      2.3759184     -9.1025001      79.314974      1.3740002    
    432000   91.876558     -11.370662      2.2683116     -9.1023499      142.73234      1.3740002    
    433000   95.434022     -11.458969      2.3561408     -9.1028286      80.352698      1.3740002    
    434000   98.007329     -11.522535      2.4196723     -9.1028631      7.3021484      1.3740002    
    435000   93.328292     -11.406638      2.304153      -9.1024847      104.52307      1.3740002    
    436000   94.876113     -11.44449       2.3423667     -9.1021234      36.063631      1.3740002    
    437000   86.529433     -11.238729      2.1362981     -9.1024308      248.89601      1.3740002    
    438000   93.650513     -11.414714      2.3121083     -9.1026061      126.61123      1.3740002    
    439000   92.429321     -11.384512      2.2819586     -9.1025536      104.33562      1.3740002    
    440000   94.943057     -11.446419      2.3440195     -9.1023997      38.946662      1.3740002    
    441000   97.858549     -11.518331      2.4159992     -9.1023316      53.802536      1.3740002    
    442000   96.556582     -11.4863        2.3838553     -9.1024451      111.10309      1.3740002    
    443000   84.884852     -11.198069      2.0956956     -9.1023733      335.28127      1.3740002    
    444000   93.850707     -11.419336      2.3170508     -9.1022857      245.20589      1.3740002    
    445000   95.201986     -11.452677      2.3504121     -9.1022648      80.835565      1.3740002    
    446000   94.798572     -11.442731      2.3404523     -9.1022787      87.780442      1.3740002    
    447000   95.767949     -11.466946      2.364385      -9.1025607      46.673004      1.3740002    
    448000   89.966129     -11.323502      2.2211457     -9.1023567      194.85661      1.3740002    
    449000   92.169014     -11.377812      2.275532      -9.1022802      95.931008      1.3740002    
    450000   91.989574     -11.373873      2.2711019     -9.1027708      157.98453      1.3740002    
    451000   91.644227     -11.365288      2.2625757     -9.1027121      169.48547      1.3740002    
    452000   92.895806     -11.396052      2.2934756     -9.1025761      114.5071       1.3740002    
    453000   90.593839     -11.339207      2.236643      -9.1025643      147.30959      1.3740002    
    454000   95.054996     -11.449297      2.3467831     -9.1025143      53.924942      1.3740002    
    455000   94.180141     -11.428395      2.3251841     -9.1032105      49.869877      1.3740002    
    456000   90.969829     -11.348531      2.2459257     -9.102605       201.12949      1.3740002    
    457000   95.341796     -11.456452      2.3538638     -9.1025884      32.504788      1.3740002    
    458000   89.705195     -11.317344      2.2147035     -9.1026403      193.36409      1.3740002    
    459000   89.047859     -11.300987      2.1984748     -9.1025122      208.20336      1.3740002    
    460000   93.117245     -11.401658      2.2989426     -9.1027158      120.18389      1.3740002    
    461000   97.506301     -11.509732      2.4073026     -9.1024292      1.7389726      1.3740002    
    462000   94.790023     -11.442666      2.3402413     -9.1024249      111.2997       1.3740002    
    463000   97.393892     -11.506808      2.4045274     -9.1022807      10.509646      1.3740002    
    464000   95.494244     -11.460127      2.3576276     -9.1024993      90.514581      1.3740002    
    465000   94.001623     -11.422975      2.3207767     -9.1021981      214.05745      1.3740002    
    466000   96.178283     -11.476858      2.3745156     -9.1023426      78.496747      1.3740002    
    467000   96.07633      -11.474295      2.3719985     -9.1022963      80.182974      1.3740002    
    468000   96.056066     -11.474065      2.3714982     -9.1025665      70.069305      1.3740002    
    469000   96.351113     -11.481339      2.3787825     -9.1025565      37.289252      1.3740002    
    470000   97.463221     -11.508516      2.406239      -9.1022773      65.473609      1.3740002    
    471000   90.185161     -11.329069      2.2265533     -9.1025162      200.72923      1.3740002    
    472000   98.599702     -11.536806      2.4342973     -9.1025082      52.313202      1.3740002    
    473000   89.554003     -11.313609      2.2109708     -9.1026385      224.76912      1.3740002    
    474000   93.247555     -11.404789      2.3021598     -9.1026296      151.25098      1.3740002    
    475000   94.588869     -11.437939      2.3352751     -9.1026644      80.327821      1.3740002    
    476000   98.186148     -11.526446      2.4240871     -9.1023588      24.611769      1.3740002    
    477000   100.80177     -11.591356      2.4886635     -9.1026927     -84.994419      1.3740002    
    478000   86.061865     -11.227386      2.1247545     -9.1026312      289.44156      1.3740002    
    479000   97.83612      -11.517958      2.4154454     -9.1025123      75.282726      1.3740002    
    480000   92.889613     -11.396398      2.2933227     -9.1030758      53.543929      1.3740002    
    481000   94.481723     -11.43538       2.3326298     -9.1027501      78.780642      1.3740002    
    482000   92.094352     -11.376115      2.2736887     -9.1024265      135.41159      1.3740002    
    483000   87.705502     -11.267862      2.1653338     -9.1025284      307.67142      1.3740002    
    484000   99.360596     -11.555809      2.4530827     -9.1027262     -19.357327      1.3740002    
    485000   99.60067      -11.561432      2.4590098     -9.1024226     -51.08688       1.3740002    
    486000   94.66805      -11.439745      2.3372299     -9.102515       37.764762      1.3740002    
    487000   98.274655     -11.529236      2.4262723     -9.102964       37.429519      1.3740002    
    488000   94.773362     -11.442497      2.3398299     -9.102667       46.263898      1.3740002    
    489000   92.504535     -11.386638      2.2838156     -9.1028222      104.16716      1.3740002    
    490000   97.081555     -11.499556      2.3968162     -9.1027395     -62.4807        1.3740002    
    491000   94.582865     -11.437793      2.3351268     -9.1026658      116.30893      1.3740002    
    492000   95.026569     -11.448446      2.3460813     -9.1023643      64.455788      1.3740002    
    493000   91.948843     -11.373103      2.2700963     -9.1030071      161.55451      1.3740002    
    494000   91.462017     -11.360529      2.2580772     -9.1024518      227.87953      1.3740002    
    495000   99.345213     -11.555551      2.4527029     -9.1028485     -30.957538      1.3740002    
    496000   94.537485     -11.436559      2.3340064     -9.102553       71.639224      1.3740002    
    497000   95.254332     -11.453835      2.3517045     -9.1021309      35.154054      1.3740002    
    498000   93.973718     -11.422818      2.3200878     -9.1027299      120.34552      1.3740002    
    499000   94.050158     -11.424872      2.321975      -9.1028966      110.88463      1.3740002    
    500000   94.574023     -11.437456      2.3349085     -9.1025475      85.780306      1.3740002    
    501000   92.932125     -11.397108      2.2943722     -9.1027355      84.743891      1.3740002    
    502000   94.055466     -11.424832      2.322106      -9.1027257      93.651068      1.3740002    
    503000   97.469252     -11.509123      2.4063879     -9.1027346      43.166684      1.3740002    
    504000   91.67572      -11.365914      2.2633532     -9.1025611      184.39891      1.3740002    
    505000   93.425857     -11.408821      2.3065618     -9.1022592      92.723085      1.3740002    
    506000   92.99313      -11.398384      2.2958783     -9.1025057      91.091503      1.3740002    
    507000   93.357893     -11.407243      2.3048839     -9.1023589      196.65654      1.3740002    
    508000   88.861523     -11.296561      2.1938744     -9.1026869      211.44708      1.3740002    
    509000   88.748724     -11.293385      2.1910895     -9.1022956      282.4078       1.3740002    
    510000   92.914053     -11.396794      2.293926      -9.1028683      110.86572      1.3740002    
    511000   95.832414     -11.46832       2.3659765     -9.1023439      24.232011      1.3740002    
    512000   94.857652     -11.444499      2.3419109     -9.1025878      105.47049      1.3740002    
    513000   95.633422     -11.463906      2.3610637     -9.1028419      76.808788      1.3740002    
    514000   96.724708     -11.490559      2.3880061     -9.102553       10.262469      1.3740002    
    515000   96.375753     -11.482013      2.3793909     -9.1026225      68.065283      1.3740002    
    516000   93.291327     -11.405795      2.3032404     -9.1025546      132.34099      1.3740002    
    517000   91.432472     -11.359863      2.2573477     -9.1025154      111.06543      1.3740002    
    518000   97.534233     -11.51063       2.4079922     -9.1026373     -5.9385071      1.3740002    
    519000   94.537143     -11.436565      2.333998      -9.1025666      17.14882       1.3740002    
    520000   88.982564     -11.299576      2.1968627     -9.1027131      213.30145      1.3740002    
    521000   98.402941     -11.531693      2.4294395     -9.1022537      11.56312       1.3740002    
    522000   95.013001     -11.448034      2.3457463     -9.1022882      137.23085      1.3740002    
    523000   90.287978     -11.331935      2.2290917     -9.102843       81.063938      1.3740002    
    524000   93.53694      -11.41193       2.3093043     -9.1026258      161.63468      1.3740002    
    525000   96.472668     -11.484558      2.3817836     -9.1027742      31.968176      1.3740002    
    526000   90.304628     -11.332155      2.2295028     -9.1026525      169.16591      1.3740002    
    527000   89.736706     -11.318543      2.2154815     -9.1030617      182.95231      1.3740002    
    528000   93.20559      -11.40403       2.3011237     -9.1029066      124.56486      1.3740002    
    529000   86.913992     -11.248252      2.1457924     -9.1024594      364.21158      1.3740002    
    530000   90.794239     -11.34473       2.2415906     -9.1031395      142.93683      1.3740002    
    531000   92.901649     -11.396284      2.2936198     -9.102664       157.62431      1.3740002    
    532000   89.399855     -11.309902      2.2071651     -9.102737       157.25332      1.3740002    
    533000   94.504863     -11.435539      2.3332011     -9.1023376      40.806594      1.3740002    
    534000   92.047769     -11.374891      2.2725386     -9.1023525      130.04972      1.3740002    
    535000   95.581929     -11.462463      2.3597924     -9.1026704      80.429987      1.3740002    
    536000   89.775226     -11.318912      2.2164325     -9.102479       140.68165      1.3740002    
    537000   88.937253     -11.298198      2.1957441     -9.1024543      177.3922       1.3740002    
    538000   88.485464     -11.287248      2.18459       -9.1026583      244.39348      1.3740002    
    539000   96.180484     -11.476759      2.3745699     -9.1021895      57.848792      1.3740002    
    540000   97.476619     -11.509087      2.4065698     -9.1025173      75.105158      1.3740002    
    541000   89.18229      -11.304114      2.2017937     -9.10232        214.72862      1.3740002    
    542000   95.825049     -11.467972      2.3657947     -9.1021769      110.14324      1.3740002    
    543000   94.588173     -11.437194      2.3352579     -9.1019362      108.19402      1.3740002    
    544000   90.082346     -11.325851      2.2240149     -9.1018358      218.5088       1.3740002    
    545000   99.141869     -11.550239      2.4476826     -9.1025568     -79.832842      1.3740002    
    546000   96.377446     -11.481884      2.3794327     -9.1024509      8.4261133      1.3740002    
    547000   98.367537     -11.531494      2.4285654     -9.1029286      10.265925      1.3740002    
    548000   90.532854     -11.338002      2.2351374     -9.1028644      119.32091      1.3740002    
    549000   93.474966     -11.410523      2.3077742     -9.1027488      148.38321      1.3740002    
    550000   95.21897      -11.453245      2.3508314     -9.1024133      46.184078      1.3740002    
    551000   93.909967     -11.421102      2.3185138     -9.1025886      102.20977      1.3740002    
    552000   86.177625     -11.230335      2.1276125     -9.1027229      274.00092      1.3740002    
    553000   96.729671     -11.490611      2.3881286     -9.1024828      2.3832204      1.3740002    
    554000   96.098544     -11.475083      2.3725469     -9.1025357      28.282572      1.3740002    
    555000   94.07332      -11.425258      2.3225468     -9.1027116      53.858968      1.3740002    
    556000   97.100571     -11.499707      2.3972857     -9.1024214      14.819237      1.3740002    
    557000   93.970326     -11.422365      2.320004      -9.1023607      69.721424      1.3740002    
    558000   89.19023      -11.304585      2.2019897     -9.1025954      180.55009      1.3740002    
    559000   92.768701     -11.392835      2.2903375     -9.1024972      87.188828      1.3740002    
    560000   94.347726     -11.431717      2.3293215     -9.1023951      12.368163      1.3740002    
    561000   93.607651     -11.41399       2.3110501     -9.10294        93.743094      1.3740002    
    562000   92.032859     -11.374763      2.2721705     -9.102593       125.12787      1.3740002    
    563000   95.877741     -11.469855      2.3670956     -9.1027592      55.585172      1.3740002    
    564000   97.775155     -11.516624      2.4139403     -9.1026836      11.731123      1.3740002    
    565000   91.299571     -11.356441      2.2540666     -9.1023744      142.60788      1.3740002    
    566000   92.953317     -11.39756       2.2948954     -9.1026641      103.86544      1.3740002    
    567000   91.169968     -11.353385      2.2508669     -9.1025179      164.08002      1.3740002    
    568000   92.054542     -11.37496       2.2727058     -9.1022545      82.115544      1.3740002    
    569000   96.251268     -11.478916      2.3763175     -9.1025985      94.240371      1.3740002    
    570000   94.71278      -11.441182      2.3383343     -9.1028482      101.88836      1.3740002    
    571000   94.230582     -11.42874       2.3264294     -9.1023107      42.069714      1.3740002    
    572000   92.47516      -11.385631      2.2830903     -9.1025402      85.950273      1.3740002    
    573000   93.371066     -11.407671      2.3052091     -9.1024618      130.52892      1.3740002    
    574000   103.63094     -11.661185      2.5585119     -9.1026732     -74.839403      1.3740002    
    575000   94.753112     -11.441799      2.33933       -9.1024693      33.455469      1.3740002    
    576000   98.478502     -11.533954      2.431305      -9.1026493     -36.413798      1.3740002    
    577000   88.59651      -11.28996       2.1873316     -9.1026281      263.57701      1.3740002    
    578000   97.052703     -11.498395      2.3961039     -9.1022914      50.6467        1.3740002    
    579000   87.124718     -11.253322      2.150995      -9.1023267      136.95768      1.3740002    
    580000   95.159212     -11.451646      2.3493561     -9.1022898      70.036713      1.3740002    
    581000   97.953058     -11.520677      2.4183325     -9.1023443      6.3603756      1.3740002    
    582000   95.857576     -11.469162      2.3665977     -9.1025645      88.948538      1.3740002    
    583000   97.625628     -11.512348      2.4102486     -9.1020993     -49.503587      1.3740002    
    584000   87.163508     -11.254178      2.1519526     -9.102225       179.62601      1.3740002    
    585000   95.350238     -11.456452      2.3540723     -9.1023795      79.332583      1.3740002    
    586000   97.3309       -11.505915      2.4029722     -9.1029426     -15.711596      1.3740002    
    587000   91.48351      -11.360957      2.2586078     -9.102349       152.17016      1.3740002    
    588000   88.901888     -11.297433      2.1948709     -9.102562       262.06333      1.3740002    
    589000   83.474631     -11.163036      2.0608791     -9.102157       394.09124      1.3740002    
    590000   92.10641      -11.3764        2.2739864     -9.1024137      134.60817      1.3740002    
    591000   95.005451     -11.448042      2.3455599     -9.1024819      74.728429      1.3740002    
    592000   100.22625     -11.576758      2.4744545     -9.1023038     -37.804844      1.3740002    
    593000   96.064702     -11.47436       2.3717114     -9.1026484      54.590762      1.3740002    
    594000   91.676216     -11.365898      2.2633655     -9.1025323      172.2046       1.3740002    
    595000   96.151235     -11.476676      2.3738478     -9.1028278      37.836494      1.3740002    
    596000   90.879861     -11.346128      2.2437045     -9.1024237      222.57441      1.3740002    
    597000   93.233336     -11.404136      2.3018087     -9.1023269      114.30024      1.3740002    
    598000   91.204381     -11.353929      2.2517165     -9.1022125      194.76455      1.3740002    
    599000   97.746268     -11.515863      2.4132271     -9.102636       30.206342      1.3740002    
    600000   95.510161     -11.460587      2.3580205     -9.102567      -18.982276      1.3740002    
    601000   94.798085     -11.442805      2.3404403     -9.1023649      89.805168      1.3740002    
    602000   95.189143     -11.452502      2.350095      -9.1024065      18.554627      1.3740002    
    603000   97.587176     -11.512018      2.4092993     -9.1027186      14.344704      1.3740002    
    604000   92.081555     -11.376002      2.2733727     -9.1026293      95.480488      1.3740002    
    605000   94.228472     -11.429355      2.3263773     -9.102978       47.059364      1.3740002    
    606000   91.583633     -11.363469      2.2610797     -9.1023891      122.18365      1.3740002    
    607000   93.817851     -11.418875      2.3162396     -9.1026355      80.696963      1.3740002    
    608000   95.263248     -11.454413      2.3519246     -9.1024884      79.700986      1.3740002    
    609000   88.403711     -11.285451      2.1825716     -9.1028795      195.30308      1.3740002    
    610000   94.512961     -11.435808      2.333401      -9.1024065      100.16062      1.3740002    
    611000   95.884972     -11.469958      2.3672741     -9.1026838     -9.0190258      1.3740002    
    612000   94.466197     -11.435179      2.3322464     -9.1029329      78.551992      1.3740002    
    613000   99.992146     -11.571418      2.4686749     -9.102743      -52.227617      1.3740002    
    614000   98.158843     -11.525763      2.423413      -9.1023499     -12.510536      1.3740002    
    615000   96.401548     -11.482538      2.3800277     -9.1025105      38.791152      1.3740002    
    616000   95.088011     -11.449982      2.3475982     -9.1023842      134.26595      1.3740002    
    617000   92.612747     -11.388532      2.2864872     -9.102045       200.28577      1.3740002    
    618000   94.459854     -11.434213      2.3320898     -9.1021235      144.72571      1.3740002    
    619000   96.243435     -11.478545      2.3761241     -9.1024207      73.428362      1.3740002    
    620000   84.741463     -11.194405      2.0921555     -9.1022497      353.19723      1.3740002    
    621000   97.041581     -11.498936      2.3958293     -9.1031064      3.7592755      1.3740002    
    622000   94.020888     -11.423781      2.3212523     -9.1025288      136.59678      1.3740002    
    623000   89.131064     -11.303062      2.200529      -9.1025331      194.16578      1.3740002    
    624000   92.462868     -11.385386      2.2827869     -9.1025995      98.324097      1.3740002    
    625000   93.258967     -11.405305      2.3024415     -9.1028635      138.63627      1.3740002    
    626000   94.839463     -11.444268      2.3414619     -9.1028062      77.624051      1.3740002    
    627000   93.652265     -11.414965      2.3121515     -9.1028138      66.834936      1.3740002    
    628000   94.420289     -11.433637      2.331113      -9.1025244      101.71909      1.3740002    
    629000   89.198964     -11.304185      2.2022054     -9.1019798      173.25624      1.3740002    
    630000   90.250225     -11.330628      2.2281596     -9.1024687      209.25421      1.3740002    
    631000   91.296444     -11.356899      2.2539894     -9.1029101      154.7687       1.3740002    
    632000   90.92098      -11.347422      2.2447197     -9.1027022      159.54393      1.3740002    
    633000   93.710792     -11.416211      2.3135965     -9.1026144      124.38989      1.3740002    
    634000   92.082134     -11.375849      2.273387      -9.1024616      181.80887      1.3740002    
    635000   86.632776     -11.241321      2.1388496     -9.1024717      266.24209      1.3740002    
    636000   94.454346     -11.434371      2.3319538     -9.1024172      99.006574      1.3740002    
    637000   96.315792     -11.480522      2.3779105     -9.1026115      88.988089      1.3740002    
    638000   91.904472     -11.371621      2.2690008     -9.1026201      229.9964       1.3740002    
    639000   93.022014     -11.399086      2.2965914     -9.1024942      104.86764      1.3740002    
    640000   98.095065     -11.524622      2.4218384     -9.1027833      70.305934      1.3740002    
    641000   96.102681     -11.4747        2.3726491     -9.1020509      162.36298      1.3740002    
    642000   95.895446     -11.469798      2.3675327     -9.1022657      29.166577      1.3740002    
    643000   93.447166     -11.409499      2.3070879     -9.1024111      92.412872      1.3740002    
    644000   98.243096     -11.528105      2.4254931     -9.1026122      53.730386      1.3740002    
    645000   94.827525     -11.44361       2.3411672     -9.102443       68.300477      1.3740002    
    646000   93.139969     -11.401841      2.2995036     -9.1023372      131.81137      1.3740002    
    647000   91.207451     -11.354405      2.2517923     -9.1026123      112.67558      1.3740002    
    648000   96.07565      -11.474583      2.3719817     -9.1026011     -21.61388       1.3740002    
    649000   91.14074      -11.352848      2.2501453     -9.1027028      135.52968      1.3740002    
    650000   92.372283     -11.383482      2.2805504     -9.1029314      176.84596      1.3740002    
    651000   92.167212     -11.377949      2.2754875     -9.1024617      162.12891      1.3740002    
    652000   91.310358     -11.356707      2.2543329     -9.1023745      181.12998      1.3740002    
    653000   91.333557     -11.357537      2.2549057     -9.1026315      163.90961      1.3740002    
    654000   100.53629     -11.584956      2.482109      -9.1028472     -61.879154      1.3740002    
    655000   90.058497     -11.325904      2.2234261     -9.1024775      156.64731      1.3740002    
    656000   89.899437     -11.321695      2.2194991     -9.1021962      224.97607      1.3740002    
    657000   93.480968     -11.410671      2.3079224     -9.1027484      94.387659      1.3740002    
    658000   83.842353     -11.17221       2.0699577     -9.1022525      327.68043      1.3740002    
    659000   87.629026     -11.26584       2.1634456     -9.1023948      203.45283      1.3740002    
    660000   93.491944     -11.41085       2.3081934     -9.1026564      63.025618      1.3740002    
    661000   95.263341     -11.454712      2.3519269     -9.1027851      112.47368      1.3740002    
    662000   93.991671     -11.423327      2.320531      -9.1027956      114.76846      1.3740002    
    663000   92.416955     -11.384008      2.2816533     -9.1023551      91.505799      1.3740002    
    664000   90.950425     -11.347923      2.2454466     -9.1024766      186.16198      1.3740002    
    665000   96.84661      -11.493565      2.3910157     -9.1025498      119.99528      1.3740002    
    666000   95.032909     -11.448816      2.3462378     -9.1025782      102.34818      1.3740002    
    667000   98.163941     -11.525985      2.4235389     -9.1024463      16.870693      1.3740002    
    668000   100.36143     -11.580336      2.477792      -9.102544      -21.733055      1.3740002    
    669000   88.267608     -11.28143       2.1792114     -9.1022189      261.82648      1.3740002    
    670000   95.967388     -11.47192       2.3693089     -9.1026112      73.900764      1.3740002    
    671000   90.677209     -11.341345      2.2387013     -9.1026442      186.12843      1.3740002    
    672000   96.691118     -11.489913      2.3871768     -9.1027359     -10.840557      1.3740002    
    673000   97.332454     -11.505801      2.4030105     -9.1027907      12.742399      1.3740002    
    674000   92.924877     -11.397084      2.2941933     -9.1028909      117.61827      1.3740002    
    675000   94.600047     -11.438202      2.335551      -9.1026514      90.697323      1.3740002    
    676000   97.745937     -11.516189      2.4132189     -9.1029705     -36.917803      1.3740002    
    677000   97.88881      -11.519264      2.4167463     -9.1025174     -34.744895      1.3740002    
    678000   91.369923     -11.358698      2.2558035     -9.102895       167.82177      1.3740002    
    679000   91.161424     -11.353505      2.2506559     -9.1028493      120.076        1.3740002    
    680000   91.691994     -11.366696      2.263755      -9.1029411      153.30387      1.3740002    
    681000   95.13794      -11.451688      2.3488309     -9.1028569      14.86801       1.3740002    
    682000   89.724965     -11.317414      2.2151916     -9.1022219      153.22019      1.3740002    
    683000   88.485499     -11.28735       2.1845909     -9.1027587      210.07138      1.3740002    
    684000   97.623937     -11.512976      2.4102069     -9.1027686      1.0342704      1.3740002    
    685000   91.091784     -11.351395      2.2489366     -9.1024587      124.03898      1.3740002    
    686000   90.875776     -11.346045      2.2436036     -9.1024412      134.7406       1.3740002    
    687000   98.128098     -11.525213      2.422654      -9.1025595      75.7571        1.3740002    
    688000   92.01642      -11.374369      2.2717647     -9.1026048      158.4384       1.3740002    
    689000   92.168713     -11.378245      2.2755246     -9.1027201      143.43259      1.3740002    
    690000   92.216327     -11.37924       2.2767001     -9.1025401      111.8504       1.3740002    
    691000   92.326628     -11.38207       2.2794233     -9.1026471      134.17736      1.3740002    
    692000   90.482741     -11.33642       2.2339001     -9.1025197      191.44307      1.3740002    
    693000   95.143043     -11.451487      2.3489569     -9.1025306      37.247323      1.3740002    
    694000   93.170786     -11.402928      2.3002644     -9.1026631      148.1247       1.3740002    
    695000   93.874183     -11.420144      2.3176304     -9.1025135      125.13283      1.3740002    
    696000   93.723872     -11.416668      2.3139194     -9.1027489      94.954551      1.3740002    
    697000   95.009892     -11.448464      2.3456696     -9.1027943      34.073572      1.3740002    
    698000   97.924209     -11.520311      2.4176202     -9.1026906     -24.192976      1.3740002    
    699000   92.095441     -11.376461      2.2737156     -9.1027457      142.75473      1.3740002    
    700000   98.920547     -11.545065      2.4422185     -9.1028461      5.7177092      1.3740002    
    701000   95.399443     -11.458114      2.3552871     -9.1028272      68.897271      1.3740002    
    702000   88.871113     -11.296395      2.1941112     -9.1022843      269.53674      1.3740002    
    703000   97.391859     -11.507042      2.4044772     -9.1025646      103.20371      1.3740002    
    704000   97.623994     -11.512886      2.4102083     -9.1026776     -4.1505273      1.3740002    
    705000   91.89695      -11.371471      2.2688151     -9.1026561      99.685143      1.3740002    
    706000   95.978757     -11.472597      2.3695896     -9.1030074     -4.5498578      1.3740002    
    707000   93.373648     -11.408254      2.3052728     -9.1029812      40.943155      1.3740002    
    708000   91.260717     -11.355807      2.2531073     -9.1027         62.371163      1.3740002    
    709000   93.807052     -11.418636      2.315973      -9.1026627      36.989761      1.3740002    
    710000   94.972277     -11.447448      2.3447409     -9.1027073      90.251987      1.3740002    
    711000   95.861526     -11.469398      2.3666953     -9.1027023     -19.023404      1.3740002    
    712000   89.832448     -11.32052       2.2178452     -9.1026751      182.52462      1.3740002    
    713000   96.415581     -11.483163      2.3803742     -9.1027892      28.232676      1.3740002    
    714000   99.017592     -11.5468        2.4446144     -9.1021856     -50.555466      1.3740002    
    715000   96.57648      -11.486878      2.3843466     -9.1025316      55.982295      1.3740002    
    716000   91.728192     -11.367463      2.2646487     -9.1028139      147.21859      1.3740002    
    717000   94.22881      -11.428942      2.3263857     -9.1025566      34.598352      1.3740002    
    718000   87.369266     -11.259559      2.1570325     -9.1025264      191.64131      1.3740002    
    719000   97.913078     -11.519781      2.4173454     -9.1024353     -23.255163      1.3740002    
    720000   94.06965      -11.42553       2.3224562     -9.1030734      67.129621      1.3740002    
    721000   94.055229     -11.424574      2.3221002     -9.1024738      99.087876      1.3740002    
    722000   93.730007     -11.416835      2.3140709     -9.1027643      80.293146      1.3740002    
    723000   97.196341     -11.502358      2.3996501     -9.1027076      74.24761       1.3740002    
    724000   91.684351     -11.366079      2.2635663     -9.1025132      164.60677      1.3740002    
    725000   90.622982     -11.340042      2.2373625     -9.1026793      216.23077      1.3740002    
    726000   97.776081     -11.516391      2.4139631     -9.1024283      57.371777      1.3740002    
    727000   97.51134      -11.509922      2.407427      -9.1024951      26.353362      1.3740002    
    728000   93.422043     -11.408635      2.3064676     -9.1021675      65.487907      1.3740002    
    729000   89.135041     -11.30334       2.2006272     -9.1027125      185.26294      1.3740002    
    730000   97.246784     -11.503177      2.4008955     -9.1022813      14.660372      1.3740002    
    731000   95.792094     -11.467352      2.3649811     -9.1023713      41.158308      1.3740002    
    732000   92.864324     -11.395551      2.2926983     -9.1028526      168.50909      1.3740002    
    733000   93.129724     -11.401949      2.2992507     -9.1026982      113.78204      1.3740002    
    734000   91.989765     -11.373704      2.2711066     -9.1025979      181.69438      1.3740002    
    735000   91.229373     -11.354612      2.2523335     -9.1022788      141.91541      1.3740002    
    736000   89.37532      -11.309028      2.2065594     -9.1024683      236.77052      1.3740002    
    737000   94.158793     -11.427362      2.324657      -9.1027053      91.180303      1.3740002    
    738000   97.882742     -11.51938       2.4165964     -9.1027837      48.519332      1.3740002    
    739000   88.045241     -11.27645       2.1737215     -9.102729       178.52332      1.3740002    
    740000   95.62514      -11.463286      2.3608592     -9.102427       37.657332      1.3740002    
    741000   97.874183     -11.518793      2.4163851     -9.1024076      13.267911      1.3740002    
    742000   95.456991     -11.45873       2.3567078     -9.1020221      92.057568      1.3740002    
    743000   90.902085     -11.346635      2.2442532     -9.1023821      204.4585       1.3740002    
    744000   93.575665     -11.412488      2.3102604     -9.1022273      67.994947      1.3740002    
    745000   90.274984     -11.331285      2.2287709     -9.1025144      144.69589      1.3740002    
    746000   90.131948     -11.32778       2.2252395     -9.102541       126.47526      1.3740002    
    747000   94.489469     -11.435231      2.332821      -9.1024101      65.342071      1.3740002    
    748000   91.944725     -11.372589      2.2699946     -9.1025945      160.56797      1.3740002    
    749000   98.012733     -11.522628      2.4198057     -9.1028227     -17.048723      1.3740002    
    750000   95.839872     -11.469047      2.3661607     -9.102886       56.754687      1.3740002    
    751000   95.363683     -11.456919      2.3544042     -9.102515       86.869283      1.3740002    
    752000   85.05926      -11.202172      2.1000015     -9.1021708      319.79985      1.3740002    
    753000   88.86843      -11.296957      2.1940449     -9.1029123      249.41339      1.3740002    
    754000   88.639823     -11.29107       2.1884009     -9.1026689      205.16465      1.3740002    
    755000   92.429278     -11.384471      2.2819576     -9.102513       142.56855      1.3740002    
    756000   92.64437      -11.389902      2.2872679     -9.1026344      155.97247      1.3740002    
    757000   96.737267     -11.490823      2.3883162     -9.1025073      61.841577      1.3740002    
    758000   94.613418     -11.438275      2.3358811     -9.1023942      137.2819       1.3740002    
    759000   93.316757     -11.406523      2.3038683     -9.1026549      178.72242      1.3740002    
    760000   90.457243     -11.335909      2.2332706     -9.1026379      82.883028      1.3740002    
    761000   89.593433     -11.314753      2.2119443     -9.1028089      212.28567      1.3740002    
    762000   97.047736     -11.498505      2.3959813     -9.1025236      55.841917      1.3740002    
    763000   90.376237     -11.333572      2.2312707     -9.1023016      161.1756       1.3740002    
    764000   97.616061     -11.512379      2.4100125     -9.102367       23.798361      1.3740002    
    765000   89.172059     -11.304644      2.2015411     -9.1031033      225.04325      1.3740002    
    766000   101.50535     -11.608713      2.5060338     -9.1026794     -51.781706      1.3740002    
[...]
   4816000   91.767218     -11.368205      2.2656122     -9.102593       121.93663      1.3740002    
   4817000   97.529543     -11.510531      2.4078764     -9.1026544     -39.120201      1.3740002    
   4818000   91.28548      -11.355932      2.2537187     -9.1022129      179.38576      1.3740002    
   4819000   92.049257     -11.375232      2.2725754     -9.1026565      99.774749      1.3740002    
   4820000   94.083617     -11.42535       2.322801      -9.1025485      110.93542      1.3740002    
   4821000   86.599895     -11.240409      2.1380378     -9.1023713      213.45255      1.3740002    
   4822000   89.644929     -11.315569      2.2132156     -9.1023538      181.61996      1.3740002    
   4823000   92.427937     -11.384463      2.2819245     -9.1025388      138.53669      1.3740002    
   4824000   90.348482     -11.332858      2.2305855     -9.1022728      180.5257       1.3740002    
   4825000   93.840153     -11.419334      2.3167902     -9.1025442      104.79326      1.3740002    
   4826000   100.26675     -11.577869      2.4754544     -9.1024151     -33.57378       1.3740002    
   4827000   94.91951      -11.446001      2.3434381     -9.1025631      56.332106      1.3740002    
   4828000   94.969291     -11.447497      2.3446672     -9.1028303      70.011207      1.3740002    
   4829000   90.63218      -11.340022      2.2375896     -9.1024329      136.76377      1.3740002    
   4830000   95.913696     -11.4707        2.3679833     -9.1027169      40.813464      1.3740002    
   4831000   92.108562     -11.376571      2.2740395     -9.1025317      146.71847      1.3740002    
   4832000   90.736756     -11.342896      2.2401714     -9.1027243      124.98594      1.3740002    
   4833000   99.227629     -11.552896      2.4497999     -9.1030958     -44.610254      1.3740002    
   4834000   92.453564     -11.385512      2.2825572     -9.1029549      116.16064      1.3740002    
   4835000   94.776383     -11.442544      2.3399045     -9.1026398      78.695124      1.3740002    
   4836000   92.742651     -11.391978      2.2896944     -9.1022832      115.84679      1.3740002    
   4837000   87.178932     -11.254658      2.1523334     -9.1023246      263.88452      1.3740002    
   4838000   97.632924     -11.512665      2.4104288     -9.1022358     -7.7503364      1.3740002    
   4839000   87.969821     -11.274466      2.1718594     -9.1026067      195.67147      1.3740002    
   4840000   94.523263     -11.436083      2.3336553     -9.1024282      71.793331      1.3740002    
   4841000   102.30672     -11.628372      2.5258186     -9.1025532     -95.173385      1.3740002    
   4842000   100.49888     -11.583645      2.4811855     -9.1024592     -31.539223      1.3740002    
   4843000   92.988127     -11.398192      2.2957548     -9.1024369      175.42458      1.3740002    
   4844000   95.439311     -11.458911      2.3562713     -9.1026401      34.052249      1.3740002    
   4845000   96.097848     -11.475192      2.3725298     -9.102662       64.771473      1.3740002    
   4846000   86.89079      -11.247884      2.1452196     -9.1026642      312.59649      1.3740002    
   4847000   92.101037     -11.376089      2.2738537     -9.1022348      175.70545      1.3740002    
   4848000   93.01211      -11.398846      2.2963469     -9.1024995      143.83505      1.3740002    
   4849000   95.129966     -11.451374      2.348634      -9.1027405      54.205069      1.3740002    
   4850000   91.465004     -11.360986      2.2581509     -9.1028354      190.8313       1.3740002    
   4851000   90.51978      -11.337258      2.2348146     -9.1024432      204.27863      1.3740002    
   4852000   89.026968     -11.300364      2.197959      -9.1024052      242.6066       1.3740002    
   4853000   95.918879     -11.471139      2.3681112     -9.1030276      49.557408      1.3740002    
   4854000   91.169076     -11.353388      2.2508448     -9.1025428      120.74671      1.3740002    
   4855000   92.041319     -11.374875      2.2723794     -9.1024956      127.72585      1.3740002    
   4856000   95.41657      -11.458181      2.3557099     -9.1024709      59.831032      1.3740002    
   4857000   94.815392     -11.443108      2.3408676     -9.1022408      105.43732      1.3740002    
   4858000   89.538936     -11.313102      2.2105988     -9.1025036      187.74192      1.3740002    
   4859000   93.055172     -11.399975      2.2974101     -9.102565       89.211985      1.3740002    
   4860000   93.682612     -11.415251      2.3129007     -9.1023498      196.85594      1.3740002    
   4861000   91.084227     -11.351206      2.24875       -9.1024564      191.6583       1.3740002    
   4862000   89.082325     -11.301888      2.1993257     -9.1025627      186.41648      1.3740002    
   4863000   94.91908      -11.445956      2.3434275     -9.1025281      70.244165      1.3740002    
   4864000   99.439449     -11.557762      2.4550295     -9.1027325     -66.899306      1.3740002    
   4865000   91.307858     -11.35697       2.2542712     -9.1026985      120.93526      1.3740002    
   4866000   92.057582     -11.375423      2.2727809     -9.1026425      124.24247      1.3740002    
   4867000   83.533697     -11.164718      2.0623374     -9.1023804      308.8148       1.3740002    
   4868000   96.662681     -11.489201      2.3864747     -9.1027258     -12.828889      1.3740002    
   4869000   87.854035     -11.27173       2.1690008     -9.1027294      191.28459      1.3740002    
   4870000   90.88809      -11.346445      2.2439077     -9.1025369      130.93929      1.3740002    
   4871000   93.27503      -11.405484      2.3028381     -9.1026464      101.4188       1.3740002    
   4872000   97.960052     -11.521333      2.4185051     -9.1028275      16.392644      1.3740002    
   4873000   88.626463     -11.290782      2.1880711     -9.1027109      200.30978      1.3740002    
   4874000   95.43615      -11.458791      2.3561933     -9.1025975      69.624039      1.3740002    
   4875000   96.791919     -11.492402      2.3896655     -9.1027362     -15.354044      1.3740002    
   4876000   89.111368     -11.302759      2.2000427     -9.1027158      166.93326      1.3740002    
   4877000   93.933229     -11.421788      2.3190881     -9.1026998      131.36141      1.3740002    
   4878000   99.919625     -11.569509      2.4668844     -9.1026242     -2.1109729      1.3740002    
   4879000   99.820118     -11.56726       2.4644277     -9.1028322     -94.222415      1.3740002    
   4880000   92.927014     -11.396741      2.294246      -9.1024945      187.66857      1.3740002    
   4881000   93.668368     -11.414956      2.3125491     -9.1024067      50.684024      1.3740002    
   4882000   92.080565     -11.375989      2.2733483     -9.1026402      126.11606      1.3740002    
   4883000   98.651707     -11.538088      2.4355812     -9.1025068     -71.849183      1.3740002    
   4884000   92.483963     -11.385742      2.2833077     -9.1024344      85.456799      1.3740002    
   4885000   92.499575     -11.386031      2.2836931     -9.102338       122.94415      1.3740002    
   4886000   95.019042     -11.44854       2.3458955     -9.1026442     -0.82328955     1.3740002    
   4887000   89.131535     -11.30285       2.2005406     -9.1023089      238.53617      1.3740002    
   4888000   92.056452     -11.375376      2.272753      -9.102623       117.99742      1.3740002    
   4889000   90.947225     -11.348227      2.2453676     -9.1028597      123.62384      1.3740002    
   4890000   95.992675     -11.472435      2.3699332     -9.1025021      111.36726      1.3740002    
   4891000   88.757098     -11.293663      2.1912963     -9.1023662      199.62806      1.3740002    
   4892000   86.593673     -11.240043      2.1378842     -9.1021589      282.30443      1.3740002    
   4893000   91.09626      -11.351893      2.2490471     -9.1028461      90.2664        1.3740002    
   4894000   99.331637     -11.554673      2.4523678     -9.102305      -49.521406      1.3740002    
   4895000   92.977409     -11.39794       2.2954902     -9.1024502      222.48962      1.3740002    
   4896000   95.716289     -11.465411      2.3631096     -9.1023016      74.52885       1.3740002    
   4897000   96.020545     -11.472787      2.3706213     -9.1021653      64.029343      1.3740002    
   4898000   93.54165      -11.411933      2.3094206     -9.1025128      41.891529      1.3740002    
   4899000   89.891407     -11.321795      2.2193009     -9.1024939      137.83436      1.3740002    
   4900000   96.574408     -11.486715      2.3842954     -9.1024192     -38.487507      1.3740002    
   4901000   95.471332     -11.459794      2.3570619     -9.102732       42.3595        1.3740002    
   4902000   89.598607     -11.315144      2.212072      -9.1030724      207.58678      1.3740002    
   4903000   101.56866     -11.610295      2.507597      -9.1026981     -70.698253      1.3740002    
   4904000   94.927239     -11.446021      2.343629      -9.1023922      166.23145      1.3740002    
   4905000   87.453016     -11.262031      2.1591002     -9.1029307      272.09051      1.3740002    
   4906000   96.504619     -11.48532       2.3825724     -9.1027476      72.733164      1.3740002    
   4907000   90.545648     -11.338151      2.2354532     -9.1026979      148.19289      1.3740002    
   4908000   95.23753      -11.453922      2.3512896     -9.1026323      50.558941      1.3740002    
   4909000   98.761581     -11.541039      2.4382938     -9.1027452     -31.575208      1.3740002    
   4910000   92.038702     -11.374998      2.2723148     -9.1026832      126.78471      1.3740002    
   4911000   96.741602     -11.490766      2.3884232     -9.1023431      34.206954      1.3740002    
   4912000   94.130059     -11.426612      2.3239476     -9.1026647      89.674492      1.3740002    
   4913000   94.617414     -11.43892       2.3359798     -9.1029399      66.545981      1.3740002    
   4914000   93.765752     -11.417525      2.3149534     -9.1025718      120.32881      1.3740002    
   4915000   92.216398     -11.379759      2.2767019     -9.1030575      140.05716      1.3740002    
   4916000   95.301522     -11.455339      2.3528695     -9.1024693      45.932858      1.3740002    
   4917000   91.916079     -11.372142      2.2692874     -9.1028548      129.70749      1.3740002    
   4918000   93.553656     -11.412288      2.309717      -9.1025715      132.78265      1.3740002    
   4919000   93.660693     -11.414722      2.3123596     -9.102362       116.00779      1.3740002    
   4920000   85.541579     -11.214146      2.1119093     -9.1022367      319.70234      1.3740002    
   4921000   89.288011     -11.306914      2.2044038     -9.1025105      193.23891      1.3740002    
   4922000   89.748503     -11.318176      2.2157728     -9.1024031      148.44183      1.3740002    
   4923000   90.974023     -11.348515      2.2460292     -9.1024858      106.63847      1.3740002    
   4924000   94.052041     -11.424488      2.3220215     -9.1024668      102.65498      1.3740002    
   4925000   97.237141     -11.503112      2.4006574     -9.1024543      24.564817      1.3740002    
   4926000   95.372629     -11.457116      2.3546251     -9.1024908      62.368945      1.3740002    
   4927000   99.887236     -11.568735      2.4660848     -9.1026501     -104.98268      1.3740002    
   4928000   98.408051     -11.532314      2.4295656     -9.1027485      24.740313      1.3740002    
   4929000   93.02305      -11.39928       2.296617      -9.1026633      143.56788      1.3740002    
   4930000   96.125148     -11.475941      2.3732038     -9.1027377      30.40603       1.3740002    
   4931000   95.997786     -11.472667      2.3700593     -9.1026075      30.16373       1.3740002    
   4932000   94.36881      -11.432542      2.3298421     -9.1026998      150.47098      1.3740002    
   4933000   88.326042     -11.283646      2.1806541     -9.1029923      160.0638       1.3740002    
   4934000   95.651481     -11.464087      2.3615096     -9.1025775      110.01471      1.3740002    
   4935000   88.919851     -11.297743      2.1953144     -9.1024281      198.24629      1.3740002    
   4936000   97.272424     -11.504068      2.4015285     -9.1025392      22.543902      1.3740002    
   4937000   92.593826     -11.388902      2.2860201     -9.1028824      124.2876       1.3740002    
   4938000   97.096667     -11.500067      2.3971893     -9.1028777     -10.155563      1.3740002    
   4939000   95.615892     -11.463539      2.3606309     -9.1029079      41.14526       1.3740002    
   4940000   97.749098     -11.515947      2.413297      -9.1026504     -65.716341      1.3740002    
   4941000   96.072402     -11.474377      2.3719015     -9.1024751      78.02978       1.3740002    
   4942000   94.491333     -11.435332      2.332867      -9.1024649      116.53562      1.3740002    
   4943000   92.426476     -11.384501      2.2818884     -9.1026131      120.87456      1.3740002    
   4944000   86.583572     -11.239834      2.1376348     -9.1021992      218.19337      1.3740002    
   4945000   91.367701     -11.358151      2.2557486     -9.1024021      186.36325      1.3740002    
   4946000   96.442845     -11.483637      2.3810473     -9.1025895      51.291774      1.3740002    
   4947000   96.34262      -11.480974      2.3785729     -9.1024007      14.942624      1.3740002    
   4948000   94.508385     -11.436087      2.333288      -9.1027995      82.2763        1.3740002    
   4949000   89.747863     -11.318186      2.215757      -9.1024286      175.47402      1.3740002    
   4950000   94.653631     -11.439766      2.3368739     -9.1028925      25.664763      1.3740002    
   4951000   92.681508     -11.391054      2.2881848     -9.1028697      66.140449      1.3740002    
   4952000   93.183517     -11.402959      2.3005787     -9.1023808      140.32263      1.3740002    
   4953000   98.947579     -11.54539       2.4428859     -9.1025042     -27.320467      1.3740002    
   4954000   99.432192     -11.557627      2.4548503     -9.1027771      1.1132362      1.3740002    
   4955000   97.012246     -11.498022      2.395105      -9.1029167      13.563118      1.3740002    
   4956000   93.42944      -11.409698      2.3066503     -9.1030479      48.28486       1.3740002    
   4957000   99.642292     -11.562727      2.4600374     -9.1026899     -105.47507      1.3740002    
   4958000   97.113522     -11.500406      2.3976054     -9.1028009     -27.436515      1.3740002    
   4959000   89.44967      -11.310754      2.208395      -9.1023588      161.39906      1.3740002    
   4960000   90.345384     -11.333154      2.230509      -9.1026455      161.3525       1.3740002    
   4961000   95.124546     -11.451106      2.3485002     -9.102606       21.468803      1.3740002    
   4962000   92.599192     -11.388727      2.2861525     -9.1025745      143.78502      1.3740002    
   4963000   85.422386     -11.211822      2.1089666     -9.102855       290.17914      1.3740002    
   4964000   87.92155      -11.273131      2.1706677     -9.1024629      183.16039      1.3740002    
   4965000   96.312012     -11.480988      2.3778172     -9.1031706     -1.9241435      1.3740002    
   4966000   100.44898     -11.582554      2.4799534     -9.1026006     -107.38238      1.3740002    
   4967000   94.509807     -11.435672      2.3333231     -9.1023488      99.469201      1.3740002    
   4968000   95.36094      -11.456816      2.3543365     -9.1024795      135.18826      1.3740002    
   4969000   95.300647     -11.455485      2.3528479     -9.1026367      38.276245      1.3740002    
   4970000   95.724044     -11.465624      2.363301      -9.1023232      44.586199      1.3740002    
   4971000   90.245414     -11.330545      2.2280408     -9.1025042      177.00319      1.3740002    
   4972000   100.00303     -11.571824      2.4689436     -9.1028805     -111.11561      1.3740002    
   4973000   89.660917     -11.316418      2.2136104     -9.1028074      134.6896       1.3740002    
   4974000   91.691947     -11.365983      2.2637538     -9.1022295      156.7046       1.3740002    
   4975000   92.375289     -11.383269      2.2806247     -9.102644       154.9328       1.3740002    
   4976000   93.935815     -11.421536      2.319152      -9.1023835      70.274147      1.3740002    
   4977000   101.57753     -11.610424      2.5078159     -9.1026082     -34.677283      1.3740002    
   4978000   91.675385     -11.365727      2.2633449     -9.1023824      180.30535      1.3740002    
   4979000   89.648672     -11.315719      2.2133081     -9.1024109      242.03021      1.3740002    
   4980000   88.254362     -11.281142      2.1788844     -9.1022579      261.6491       1.3740002    
   4981000   93.480358     -11.410462      2.3079074     -9.102555       67.969823      1.3740002    
   4982000   92.923534     -11.396732      2.2941601     -9.1025722      127.77919      1.3740002    
   4983000   91.694923     -11.366443      2.2638273     -9.1026153      185.8503       1.3740002    
   4984000   97.279801     -11.504157      2.4017106     -9.1024461      12.783446      1.3740002    
   4985000   93.406429     -11.408636      2.3060822     -9.1025541      70.652659      1.3740002    
   4986000   94.242806     -11.429315      2.3267312     -9.1025836      127.8652       1.3740002    
   4987000   92.137038     -11.376817      2.2747425     -9.1020748      201.3432       1.3740002    
   4988000   92.38726      -11.383542      2.2809202     -9.1026213      139.89907      1.3740002    
   4989000   91.269691     -11.355769      2.2533289     -9.1024397      147.23943      1.3740002    
   4990000   91.615946     -11.364427      2.2618775     -9.1025498      149.41345      1.3740002    
   4991000   93.933235     -11.421839      2.3190883     -9.1027502      94.015121      1.3740002    
   4992000   93.50004      -11.411046      2.3083933     -9.1026526      65.852792      1.3740002    
   4993000   91.383298     -11.358227      2.2561337     -9.1020935      133.85478      1.3740002    
   4994000   95.485257     -11.459795      2.3574057     -9.1023894      62.216881      1.3740002    
   4995000   95.734283     -11.466396      2.3635538     -9.1028421      40.586474      1.3740002    
   4996000   95.085587     -11.450081      2.3475384     -9.1025423      65.18388       1.3740002    
   4997000   89.141992     -11.303412      2.2007988     -9.1026128      208.88075      1.3740002    
   4998000   95.949113     -11.470832      2.3688577     -9.1019739      42.986206      1.3740002    
   4999000   93.575165     -11.412735      2.310248      -9.1024869      129.8926       1.3740002    
   5000000   86.183357     -11.230141      2.127754      -9.1023871      252.50379      1.3740002    
Loop time of 12772.9 on 1 procs for 5000000 steps with 192 atoms

Performance: 33.822 ns/day, 0.710 hours/ns, 391.454 timesteps/s
99.3% CPU use with 1 MPI tasks x 1 OpenMP threads

MPI task timing breakdown:
Section |  min time  |  avg time  |  max time  |%varavg| %total
---------------------------------------------------------------
Pair    | 5944.9     | 5944.9     | 5944.9     |   0.0 | 46.54
Neigh   | 828.6      | 828.6      | 828.6      |   0.0 |  6.49
Comm    | 269.59     | 269.59     | 269.59     |   0.0 |  2.11
Output  | 3.4446     | 3.4446     | 3.4446     |   0.0 |  0.03
Modify  | 5700.4     | 5700.4     | 5700.4     |   0.0 | 44.63
Other   |            | 25.89      |            |       |  0.20

Nlocal:            192 ave         192 max         192 min
Histogram: 1 0 0 0 0 0 0 0 0 0
Nghost:           2617 ave        2617 max        2617 min
Histogram: 1 0 0 0 0 0 0 0 0 0
Neighs:          28591 ave       28591 max       28591 min
Histogram: 1 0 0 0 0 0 0 0 0 0

Total # of neighbors = 28591
Ave neighs/atom = 148.91146
Neighbor list builds = 500000
Dangerous builds not checked
Total wall time: 3:32:52
