 # LAMMPS timestep 59567
 
         192  atoms
           1  atom types
 
      0.000000000000      23.120600000000  xlo xhi
      0.000000000000      23.120600000000  ylo yhi
      0.000000000000      17.340450000000  zlo zhi
 
Masses
 
1   39.94800200             # Ar
 
Atoms # atomic
 
         1    1       16.900151709512       0.141994969405       9.367306065940
         2    1       20.643972036407      18.464680551800       0.043397801213
         3    1        6.930442873804       1.878271896431       6.715096088838
         4    1        4.272228187598       3.775194945866       4.087435868647
         5    1       20.089922401735      21.451953742490      10.275478246315
         6    1        7.574487715232      16.522534034232      12.156289645516
         7    1       11.267422370499       9.966973311665      11.076784148811
         8    1        5.729617440631       6.162096380871      16.099947522225
         9    1        6.295991173066      20.373635501565      13.399654035570
        10    1       19.558201838227      18.229408071031      13.113127767543
        11    1       11.898622406287      22.427886684046       0.234862235896
        12    1       12.446318411586       1.203631155264      14.739678326280
        13    1       17.721299316314       5.706467458257       0.767035878988
        14    1       19.148799207926       4.806520446657      15.124933715877
        15    1       14.971763185048      22.249372053649      12.956450407556
        16    1        7.671705832323       1.565012486815       2.935793762436
        17    1        1.116466374064      13.208581991699       7.797965754744
        18    1        4.379536304270      12.018005019247       5.848829451381
        19    1       22.753808910548       2.755272282026       3.580435965647
        20    1       20.913736952728       6.275515597271      11.824248874991
        21    1        7.253070299868       8.754201016504       0.656477400163
        22    1       13.594450006439       9.329010650691      14.257382898989
        23    1        5.222398423597       5.590622320886      12.156202935985
        24    1        8.034116478820      14.843827904718      15.125624081233
        25    1       21.935476487133       9.951946788869       7.821655875325
        26    1        8.436908938334      12.949911145098      12.479120063110
        27    1        9.233242257601       6.565815249010      10.563742716429
        28    1       13.169099763976      19.852793604681       3.589849393180
        29    1       11.339042745487       8.028056077257       4.635226301944
        30    1       20.442354137835      11.586421216195       0.180248163022
        31    1        2.441524302947       8.080635735245       6.881216110192
        32    1       17.319013499867       3.006907243514       7.198862438683
        33    1       21.197819153562       6.588199011799       0.863019663288
        34    1       22.118003383345      17.836412159214      10.682219483356
        35    1        3.225127799438      15.960230564795       1.760802944287
        36    1        1.809871821278      19.679219469944       5.213310024287
        37    1        9.830962634653      10.861834919381       2.266532004514
        38    1       16.529114015733       3.183011891157       3.533364684922
        39    1       16.352517578481       7.001301167911      14.422290141421
        40    1        4.735067982962      14.871375120696       8.196563815379
        41    1       14.112058690725       2.021348971750       6.315011384382
        42    1        5.657498501895      18.894293567482       3.086402430800
        43    1        2.338942948270       0.425014991380       5.478527776937
        44    1        8.495153505620      15.767031406540       1.173876304911
        45    1       13.715726942296      13.821655419775      16.552671348595
        46    1       18.411981656832      15.616432374642       5.327180438776
        47    1       15.776342936370       3.462550983631      15.487604045016
        48    1       19.526185371941      20.600562149174       4.400322201235
        49    1       22.985258459177      14.604179052551       0.186963900643
        50    1        9.275945567579      20.426921476759       9.776646365389
        51    1        5.096435610870      23.120231529688      14.868198276382
        52    1        2.511091696403      20.309174242974      14.624680724150
        53    1        8.509415207443       0.277116214852      15.784639040611
        54    1        2.504942720514       5.710969155737       0.637556919735
        55    1        1.460090783818       0.498192172305      14.227561203764
        56    1       15.490593998401      17.284855734544       4.489157656015
        57    1        9.254410688377       7.325264069320      13.977556841937
        58    1       11.903078100899       0.781467188419       3.779127320932
        59    1        6.765899202805       3.131148027299      14.158628203706
        60    1       10.398177716972       3.891407917644      13.275323632033
        61    1       16.631730360017       9.116135932742       0.776437045668
        62    1        3.670153170012      16.392667729333      12.069531896534
        63    1        1.045806134805      17.152208402404      15.361379493051
        64    1       16.998901723626      19.245153570542      11.278361672117
        65    1       22.271868871792       2.136043120910       7.280416069509
        66    1        0.770628972713      15.003313482320       4.629619585078
        67    1       21.042944137030      13.155983429054       6.147021597485
        68    1        5.678659418706      17.793410194781      16.809741845853
        69    1        9.071381803457       4.763419795869       6.672659606180
        70    1       12.721610797762       5.375258968101      15.773128343104
        71    1        6.676560455831      21.793364055358       0.994462071165
        72    1        6.227634724141       6.101220033914       8.711046948579
        73    1        9.316524065233      21.408544320191       2.865197132425
        74    1       10.634583187565       6.571597073067       1.224326447714
        75    1       19.600028604137       4.566157988852       3.964942877393
        76    1       19.183250949595       0.898082179203       3.845818984445
        77    1       17.353363685746      20.148032628770       1.897593250303
        78    1        3.703485169596       9.326619709496      16.927796208281
        79    1       22.587119607380       9.280842574156      12.566399852091
        80    1       13.095351334482       2.680181753113       0.749415368686
        81    1       11.695731441207      20.023981177289       7.076661863895
        82    1       10.103731296894      17.633906514006       4.573371330268
        83    1        0.400565095901       3.895459821527      11.425091093498
        84    1        1.494684157807      16.918853440499       7.886713198506
        85    1       15.936885433027       9.324947971688      11.343530389771
        86    1        2.019109057128       7.363511369613      10.446235287689
        87    1        8.924762005111       8.941685051584       7.884414936642
        88    1        7.896503400197      11.559436249465       5.057731063411
        89    1       12.383686353540       7.070708447544       8.482252780665
        90    1       14.667001874412      10.204727119523       8.030433101677
        91    1       17.765759042250       4.760604115226      11.503877066973
        92    1       15.138527533373      13.543429649085       6.426209544554
        93    1       15.120280039135       5.812738385595       5.554479331333
        94    1       17.464415411733       9.390418933865       5.590098219951
        95    1       21.227256099916       1.899374406269      14.275874750160
        96    1       14.215356144589      10.906416243127       4.220750262751
        97    1       18.237401579478      12.597014011542       9.104465962918
        98    1        5.514217550735      19.038633267359       9.855896253306
        99    1        7.318233303883      12.234968109416       8.687504467036
       100    1       22.587926443808       5.546599020843       7.695437870472
       101    1        6.494593984095      15.233218061175       4.911746562554
       102    1       14.385728739414      14.173945345066       2.714802400407
       103    1       16.918746165405      13.301114268666       0.307327173527
       104    1       12.104692530482      12.493706923740      13.666893189409
       105    1       11.147469756451      16.895273563872      14.214232591521
       106    1       15.569926162313       0.044251395424      16.279795790113
       107    1       15.454139775982       6.219458403503       9.047981936908
       108    1       11.035389518612      13.707482740458       4.676634644503
       109    1       21.854128159121      12.229606912985      10.359139879884
       110    1        2.340902886176       3.173095283046       8.443337078131
       111    1        1.431446839882      13.993394099931      11.294912233430
       112    1       19.098405953963       1.537382630897      17.247681032118
       113    1        0.891735666052      18.742518681986       1.540150096765
       114    1       19.789730394005      22.999223419401       7.248369015009
       115    1        8.377530911181      15.820707534288       7.926890518844
       116    1       16.370094004683      16.769720603793       0.979213531820
       117    1       13.366459572151      22.884449062689       9.825926386996
       118    1        4.842077993396      17.979362489150       6.321193834308
       119    1        5.169582498640      13.071640961431      11.277292863987
       120    1       13.375995719573      19.581170720163      11.795833257135
       121    1       15.668416661318       0.080668002752       2.368388261698
       122    1       16.665594846882      16.682952714730       8.282931522928
       123    1       16.572529347598      11.226337837501      14.153780230999
       124    1       14.425577340059       2.794136370258      11.651778085894
       125    1       21.274309939346      17.244257775204       5.917034519921
       126    1       23.108301787103      22.420136825318       3.011101019103
       127    1        0.083851431122       9.479786527659      16.471605358747
       128    1        2.859010752720      10.310552931509      12.640713608980
       129    1       11.108965762741      14.185196914687       9.977617007639
       130    1       22.855116929897       4.950348163504      15.326959482362
       131    1        0.893642755019      23.014402550161       9.952129780965
       132    1        1.838492106482       1.461582534692       0.545904330771
       133    1        7.932493266708       7.081713177046       4.254442920940
       134    1       10.711191375651       0.699852902229       7.076172084107
       135    1        8.113059769658      21.198946092530       6.536626668754
       136    1        5.202939602663      22.539651952219       9.673092025893
       137    1       14.658473666791      19.519865984349       8.249740429478
       138    1       16.239296704646      22.427542843137       5.839597990211
       139    1       18.787261137166      19.268864176030       7.648987396534
       140    1        2.327694581598       7.149304558851      14.587794734275
       141    1       20.467101930245      11.911842249870      13.758029051224
       142    1       20.685921793900       8.671422903554       4.044211754163
       143    1       18.259594078709       1.389208929639      12.980531466232
       144    1       18.403335277952      20.507415901725      15.308006637033
       145    1        4.133967606747       1.866566714246      12.021217482600
       146    1        3.713410365304      10.273534547031       8.838679981959
       147    1       22.345931403097      12.005491499626       3.259204155346
       148    1       22.010943749421      20.397312274665      13.748783012904
       149    1        5.544557150341      22.227583991364       4.213651664459
       150    1        3.182931558277       3.755224244081      14.841231562760
       151    1        9.253502074014       3.653732060150      16.998952631150
       152    1       22.271905147671      22.351465255463      16.935291133781
       153    1       10.076879954423      20.769830978531      13.717249772411
       154    1       11.432972975819       4.249943627169       4.102482567820
       155    1        8.084839056390      22.950635802951      11.899364529130
       156    1       12.983548884737       9.524663206942       1.179054064123
       157    1       18.949694425500      15.640828294057      16.031989248700
       158    1       20.405005912114       2.237771524326      10.178861599987
       159    1        5.202219369342       2.494170892120       0.274664304815
       160    1       15.795303144815      18.184845576374      14.468456883082
       161    1       21.341934356531      15.382079037335      13.169203976696
       162    1       17.655200134199      15.604084567331      11.866760431899
       163    1        6.550650166269       9.351609428980      11.216863575868
       164    1        1.294477188349       9.127479867561       2.305782507256
       165    1        4.494673689018       7.652176909081       3.392123262648
       166    1        6.523581088520      12.316368698021       1.522220030978
       167    1       11.988808824743      16.874933565007       1.631466551790
       168    1        9.799778446505      10.752785458715      16.101130515482
       169    1       11.340701254696      11.510884970819       7.684297946998
       170    1       11.596372295620       3.640752653619       9.412880079826
       171    1       19.909381788305       8.271349359210      14.822712110665
       172    1       13.967582686888       6.207589467283       1.641216924741
       173    1       13.627371123371       6.216978843365      12.005129432863
       174    1        3.013580003787      12.351809550152       2.389433926377
       175    1       19.603827936605       9.487835536963      10.722640200771
       176    1       18.447882283700      12.406135288413       3.714603451918
       177    1       13.762142675620      16.011122938505      11.282990463217
       178    1        8.010778844445       3.064052754991      10.192642109666
       179    1       22.707377580204      20.989860675267       7.342060435590
       180    1        3.054259329606      21.369379756137       1.240742654388
       181    1       12.804443179882      16.476749383960       7.854342606080
       182    1        9.556212236859      18.643759049542      16.899674670571
       183    1        6.227200270172      10.802218034097      14.773364410307
       184    1        2.165531612549      20.023207663800      11.329508834096
       185    1        4.416943200850      14.274902841166      15.406350646203
       186    1       13.861372699057      12.313009200285      10.608607999538
       187    1       20.353762938404      15.367589170141       2.436086752585
       188    1        0.688239432530      12.551138538217      14.627245519898
       189    1       19.359314109338       6.326694639158       8.268720131931
       190    1       20.134693970062      15.788694588681       8.964117661575
       191    1       22.995726410217       6.183815434013       4.206717077535
       192    1       14.050508283430      19.336028988686       0.022574327592
 
Velocities
 
         1    0.94733961E+00  -0.43283208E+00  -0.11466603E+00
         2    0.35736476E-01   0.35658498E+00   0.36393825E+00
         3   -0.13955107E+00  -0.21703916E+01   0.16841454E+01
         4    0.19450534E+01   0.49851132E+00  -0.27357423E+00
         5    0.13957945E+00   0.13754842E+01  -0.86856213E+00
         6    0.12565777E+01  -0.14206858E+01   0.12130155E+01
         7   -0.11209205E+01  -0.22896055E+01  -0.60271199E-01
         8   -0.96084000E+00   0.19349164E+01   0.63117763E+00
         9    0.75427480E+00  -0.17780333E+01  -0.29289093E+00
        10   -0.49459682E+00   0.22462211E+00  -0.25827509E-01
        11   -0.20914060E+00   0.23241950E+00   0.10635270E+01
        12    0.67277769E-01  -0.17611659E+01   0.27284966E+01
        13   -0.75434335E+00   0.13205677E+01  -0.18600000E+01
        14    0.77937755E+00  -0.83244580E+00  -0.13043042E+01
        15   -0.55195040E+00   0.78900218E+00  -0.65959883E+00
        16   -0.18606196E+01  -0.91014089E+00  -0.32737780E+00
        17   -0.23798954E+00   0.16018382E+01   0.21698427E+00
        18    0.33432291E+00   0.18064552E+01   0.52988779E+00
        19   -0.15490901E+01   0.68724147E+00  -0.87565744E+00
        20    0.25129827E+01  -0.37979598E-02   0.18372947E+01
        21   -0.15190037E+01   0.19617104E+01   0.21531200E+01
        22    0.14389838E+00  -0.23668804E+01  -0.22270194E+01
        23   -0.18747311E+01  -0.19188038E+01   0.47000708E+00
        24    0.16512556E+01   0.21083573E+01  -0.63393241E+00
        25   -0.82154385E+00  -0.57591530E-01   0.14910152E+01
        26    0.10941501E+01   0.25828891E+01   0.80862796E+00
        27    0.22287129E+00  -0.25951606E+01  -0.53583198E+00
        28    0.11709499E+00  -0.13955653E+01   0.12316403E+01
        29    0.18438170E+01  -0.64503349E-01   0.55970586E+00
        30    0.17219486E+01  -0.15292230E+00  -0.29367587E+00
        31    0.23584370E+00  -0.10980355E+01   0.10263368E+01
        32   -0.19037248E+01   0.47756937E+00   0.91835383E+00
        33    0.26652022E+00  -0.12006965E+01   0.61023820E+00
        34    0.36178203E-01  -0.22489386E+00   0.12455014E+00
        35    0.65199252E+00  -0.45045647E+01  -0.17615465E+00
        36    0.10581038E+01  -0.31161126E+00   0.39418821E+00
        37   -0.63671859E+00   0.47233528E-01   0.15249535E+01
        38   -0.72279500E+00   0.70561994E-02   0.30316790E+00
        39    0.20427121E+01   0.14471491E+01  -0.15052159E+01
        40    0.20108909E+00  -0.12621799E+01  -0.47389081E+00
        41    0.45355805E+00  -0.92875779E+00   0.22767051E+00
        42   -0.22328738E+01   0.55233367E-01   0.18004705E-01
        43    0.10328453E+01   0.15010829E+01  -0.32485875E+00
        44   -0.11051619E+01  -0.11208293E+01   0.73860697E+00
        45    0.37052362E+00  -0.16025601E+00   0.49165706E+00
        46   -0.12197165E+01  -0.41122499E+00   0.30439092E-01
        47   -0.65083441E+00  -0.13195983E+01   0.10036330E+01
        48    0.81438432E+00  -0.11221152E+01   0.78298232E+00
        49    0.63548695E+00  -0.22883573E+01   0.41230066E+00
        50    0.69502605E+00   0.15117870E+01  -0.14887906E+01
        51   -0.45676023E+00   0.90150834E+00  -0.13472978E+01
        52    0.17709027E+01   0.47622982E+00   0.68067512E+00
        53    0.10673527E+00   0.10156433E+01   0.32798054E+00
        54   -0.83840670E+00  -0.74455722E-01   0.13183686E+01
        55   -0.83957214E+00  -0.11502919E+01  -0.25957739E+01
        56   -0.28132499E+01   0.20642275E+01   0.16007582E-01
        57    0.31750218E+01  -0.35582501E+01  -0.15217209E+01
        58   -0.45918435E+00  -0.28847392E+00   0.21156306E+01
        59    0.86216529E-01   0.14290728E+01   0.52020837E+00
        60    0.66226232E+00   0.42794804E-01  -0.95123771E+00
        61    0.37848823E-02   0.33952126E+00   0.77250716E+00
        62    0.22241492E+01  -0.49625331E+00  -0.14554523E+01
        63   -0.68734359E+00   0.78884737E+00   0.27045494E+01
        64    0.11030630E+01   0.10116721E+01   0.22517039E+01
        65   -0.69627875E+00   0.77837447E+00  -0.98105405E+00
        66    0.14140263E+00  -0.24411820E+01  -0.15318487E+00
        67    0.29497503E+01   0.14357666E+01  -0.49080567E-01
        68    0.10432985E+01  -0.72880064E+00   0.29564734E+01
        69   -0.69984281E+00  -0.69164574E+00   0.66095934E+00
        70    0.10157300E+01  -0.13184529E+01  -0.75494290E+00
        71   -0.25790221E+01  -0.16759439E+01  -0.17904242E+01
        72   -0.16837897E+01   0.78334783E+00  -0.23637183E+01
        73   -0.84855829E+00  -0.28225309E+01  -0.16869232E+01
        74   -0.60761731E+00   0.62556727E+00  -0.21154519E+01
        75    0.42311204E+00   0.24465874E+00  -0.59634427E+00
        76    0.49933709E+00  -0.31459329E+00  -0.22867900E+01
        77    0.16493943E+00   0.65480033E+00  -0.74742102E-01
        78   -0.15693883E+00   0.51950789E+00  -0.35909996E+00
        79   -0.10870397E+01   0.24076789E+01   0.31713794E+00
        80    0.89432567E+00  -0.11826939E+01  -0.36434039E+00
        81    0.26306596E+00   0.89060310E+00   0.10130925E+01
        82    0.10245558E+01  -0.41912593E+00  -0.53301379E+00
        83    0.16531654E+01  -0.97854661E+00  -0.56911684E+00
        84    0.47306212E+00  -0.93174074E+00  -0.10785508E+01
        85    0.34595798E+00  -0.59435121E+00  -0.19157976E+01
        86    0.23027563E+01   0.70640884E+00   0.73935132E+00
        87   -0.44329400E+00   0.32923692E+01   0.13005586E+00
        88   -0.48671103E+00   0.17600512E+01   0.62065447E+00
        89   -0.29881286E+01   0.24727654E+00  -0.10222418E+01
        90   -0.56782654E+00   0.15532813E+01  -0.15989399E+01
        91    0.31972041E+00   0.33840286E+00  -0.35082785E+00
        92    0.70192278E+00  -0.28276562E+00   0.79762185E+00
        93   -0.39305405E+00  -0.25244221E+00   0.13877995E+01
        94    0.34364669E+00  -0.11286484E-01  -0.58670702E-01
        95    0.11569014E+01  -0.14645275E+01  -0.13857453E+00
        96   -0.34083504E+01  -0.43224357E+00  -0.88792300E+00
        97   -0.19106324E+01   0.98505182E+00  -0.50319699E+00
        98   -0.10008997E+01  -0.89807547E-01  -0.11258377E+01
        99    0.18730003E+01  -0.29946218E+01   0.28494309E+00
       100   -0.55198784E+00   0.23078313E+01  -0.41292439E+00
       101   -0.13154982E+01   0.12728163E+01   0.12271702E+01
       102   -0.24165493E+01   0.11700823E+01   0.22620139E+00
       103    0.27525525E+01  -0.12108828E+01   0.25707370E+00
       104   -0.31389646E+00   0.14557838E+01   0.28521933E+01
       105    0.87129752E+00   0.52164297E+00   0.33037331E+00
       106   -0.20848447E+01   0.26850103E+01  -0.22338941E+01
       107   -0.17956822E+01   0.14102194E+01   0.36266526E+00
       108    0.12547507E+01  -0.35609523E+00  -0.15049422E+01
       109   -0.91199007E-01  -0.20984786E+01  -0.11131198E+01
       110   -0.24308103E+01   0.10299636E+01   0.30870778E+01
       111   -0.57290596E+00  -0.13333739E+01   0.43301356E+00
       112   -0.26272847E+01   0.26704463E+01  -0.33769866E+00
       113   -0.16153842E+00  -0.34873738E+00   0.71320955E-01
       114    0.54083103E+00   0.69424067E+00   0.15388637E+01
       115   -0.12528148E+01  -0.48649908E+00  -0.32884015E+01
       116   -0.22144108E+00  -0.50258328E+00  -0.96309253E+00
       117    0.21054071E+01   0.12112458E+00  -0.13432945E+01
       118   -0.17294778E+01   0.14922082E+01  -0.36081558E+01
       119    0.23067399E+01  -0.68540463E+00   0.18609429E+01
       120   -0.74131397E+00  -0.25218458E+00  -0.91267963E+00
       121    0.52627209E+00   0.18056779E+01  -0.15923162E+01
       122    0.19858370E+01  -0.25579980E+01  -0.15189661E+01
       123   -0.33708868E+00  -0.16639352E+01   0.54579042E+00
       124   -0.88105012E-01   0.87194226E+00   0.17852659E-01
       125    0.84726206E+00   0.46271515E+00  -0.10218860E+01
       126    0.26173286E+01   0.28819916E+00  -0.29724926E+00
       127    0.27565889E+00   0.11249583E+01   0.10289454E+00
       128    0.16886675E+01   0.92076735E+00  -0.10399129E+01
       129    0.36445000E+00  -0.10422950E+01   0.75293520E+00
       130   -0.34517641E+00   0.17524385E+01   0.40928729E+00
       131   -0.13177159E+01  -0.80211847E+00   0.77310356E-01
       132    0.11252634E+01   0.28699948E+00  -0.28156615E+01
       133    0.15396877E+01  -0.13163094E+01  -0.10519334E+00
       134    0.49980843E-01   0.57010404E+00  -0.21393027E+01
       135   -0.81545513E+00   0.57255258E+00  -0.27801563E+01
       136    0.65750077E+00   0.20873409E+00   0.25148631E+00
       137    0.16357007E+01  -0.42829100E+00  -0.51154794E+00
       138    0.40168856E+00  -0.13035834E+01   0.26894558E+00
       139    0.46353228E+00   0.98547174E+00   0.37465435E-02
       140   -0.11104759E+01  -0.17265661E+01  -0.12029236E+01
       141   -0.21185185E+01   0.11947898E+01   0.26489315E+01
       142    0.38972130E+00   0.27533677E+01  -0.63813041E+00
       143    0.95968315E+00  -0.14923791E+00  -0.25958592E+00
       144   -0.17432727E+01   0.87903300E+00  -0.14506601E+01
       145    0.15427524E+01  -0.11947507E+01   0.25451651E+01
       146   -0.41518862E+01   0.11970534E+01   0.55152863E+00
       147    0.76167267E+00   0.17787851E+01  -0.54049703E+00
       148    0.20499170E+01   0.97036075E-01  -0.36004586E+00
       149    0.91517244E+00  -0.12284455E+01  -0.46857898E-01
       150    0.11916793E+01   0.92305497E+00  -0.30227264E+00
       151    0.38558236E+00   0.76337501E+00   0.95672013E+00
       152    0.14422677E+01  -0.86991305E+00  -0.46166314E+00
       153    0.16295762E+00   0.26247518E+01  -0.46948598E+00
       154    0.25246518E+01  -0.25898390E+01   0.93665544E+00
       155   -0.20717802E+01  -0.91871188E+00  -0.37219893E+00
       156   -0.23665527E+01   0.41389813E+00  -0.37013235E+00
       157   -0.30236307E+00  -0.82176034E+00   0.14853962E+01
       158    0.73183280E+00  -0.27041622E+01  -0.94868647E+00
       159   -0.17695407E+00  -0.26015871E+01  -0.11604358E+01
       160   -0.14106814E+01   0.43024708E+00   0.54782011E+00
       161    0.12304507E+01   0.88245811E+00   0.82903060E+00
       162   -0.43236750E+00   0.57493403E+00   0.16751644E+01
       163   -0.22744656E-01  -0.84779349E+00  -0.10460249E+01
       164   -0.23430370E+01   0.18400061E+01   0.12268746E+01
       165   -0.10586923E+01  -0.24977632E+01   0.55330410E+00
       166   -0.22097869E+01  -0.23138731E+00  -0.30126174E+01
       167   -0.12850051E+01   0.17685138E+01  -0.20778233E+00
       168   -0.31779904E+01   0.62829907E+00  -0.36015362E+01
       169   -0.12391615E+01   0.43199732E+01  -0.17336398E+01
       170    0.25692681E+01  -0.71088924E+00  -0.13308988E+01
       171    0.71618030E+00  -0.44833738E-01  -0.22650838E+01
       172   -0.21849716E+01  -0.20431540E+01   0.11055846E+01
       173    0.43229870E+00  -0.17857714E+01   0.91946164E-01
       174    0.27609610E+01   0.10188593E+01   0.24467417E+01
       175   -0.24515926E+00  -0.60525538E+00   0.43024163E+00
       176   -0.11486626E+00   0.16107283E+01   0.26878093E+01
       177   -0.12086171E+01  -0.15219839E+01   0.19517612E+01
       178   -0.20434991E+01   0.13359271E+01   0.84850552E+00
       179   -0.32777884E+00   0.21545932E+01   0.64031740E+00
       180   -0.27155071E+01   0.14564426E+01  -0.16675447E+01
       181   -0.32786928E+00  -0.19520850E+01   0.16909221E+01
       182    0.27895359E+00  -0.13854504E+01   0.27033369E+01
       183    0.63804943E+00   0.32494090E+00   0.17331915E+01
       184    0.16091718E+01  -0.22662433E+00   0.38773728E+00
       185   -0.14313172E+01  -0.14695449E+01   0.95344022E+00
       186    0.60653412E+00   0.16857715E+01   0.48845760E+01
       187    0.15733546E+01   0.19777606E+01   0.14097467E+01
       188    0.29950427E+00   0.42884937E+00   0.16312131E+01
       189    0.70613969E+00  -0.22331694E+01   0.25580852E+00
       190    0.13179096E+01   0.11497770E+00  -0.40361232E+00
       191    0.16534490E+01  -0.15691143E+00   0.13968055E+01
       192    0.10061555E+01   0.52430162E+00  -0.21437249E+01
