LAMMPS (15 Sep 2022)
OMP_NUM_THREADS environment is not set. Defaulting to 1 thread. (src/comm.cpp:98)
  using 1 OpenMP thread(s) per MPI task
variable T equal 94.0

units metal
boundary p p p
atom_style atomic

read_data nve.lmp
Reading data file ...
  orthogonal box = (0 0 0) to (28.90075 28.90075 23.1206)
  1 by 1 by 1 MPI processor grid
  reading atoms ...
  400 atoms
  reading velocities ...
  400 velocities
  read_data CPU = 0.048 seconds

neighbor 0.1 bin
neigh_modify delay 10 check no

pair_style lj/cut 15.0
pair_coeff 1 1 0.0103 3.405 15.0

thermo 1000
thermo_style custom step temp pe ke etotal press density

# Calculate the kinetic energy
compute g2 all rdf 1000
fix 1 all nve
fix temp_1 all ave/time 1 10000 10000 c_thermo_temp file temp.dat
fix g2_1 all ave/time 1 5000000 5000000 c_g2[*] file rdf.dat mode vector

dump 1 all custom 1000 argon.dump id type x y z vx vy vz

run 5000000
Generated 0 of 0 mixed pair_coeff terms from geometric mixing rule
Neighbor list info ...
  update: every = 1 steps, delay = 10 steps, check = no
  max neighbors/atom: 2000, page size: 100000
  master list distance cutoff = 15.1
  ghost atom cutoff = 15.1
  binsize = 7.55, bins = 4 4 4
  2 neighbor lists, perpetual/occasional/extra = 1 1 0
  (1) pair lj/cut, perpetual
      attributes: half, newton on
      pair build: half/bin/atomonly/newton
      stencil: half/bin/3d
      bin: standard
  (2) compute rdf, occasional, copy from (1)
      attributes: half, newton on
      pair build: copy
      stencil: none
      bin: none
Per MPI rank memory allocation (min/avg/max) = 4.002 | 4.002 | 4.002 Mbytes
   Step          Temp          PotEng         KinEng         TotEng         Press         Density    
         0   94.000385     -23.759818      4.8480509     -18.911767      55.730449      1.3740002    
      1000   94.640286     -23.792562      4.8810536     -18.911508      98.660155      1.3740002    
      2000   94.70684      -23.79578       4.8844861     -18.911294      139.77825      1.3740002    
      3000   94.627182     -23.791846      4.8803778     -18.911468      177.70033      1.3740002    
      4000   91.727397     -23.642735      4.7308219     -18.911913      168.39058      1.3740002    
      5000   92.990283     -23.707318      4.795955      -18.911363      152.5488       1.3740002    
      6000   95.840175     -23.854267      4.9429377     -18.911329      69.03587       1.3740002    
      7000   93.833903     -23.751037      4.8394646     -18.911573      119.18024      1.3740002    
      8000   94.759082     -23.798885      4.8871805     -18.911705      96.438869      1.3740002    
      9000   93.002677     -23.708094      4.7965943     -18.9115        145.60778      1.3740002    
     10000   95.150885     -23.818692      4.9073876     -18.911304      89.49653       1.3740002    
     11000   90.695956     -23.588812      4.6776256     -18.911187      180.72824      1.3740002    
     12000   90.214368     -23.564206      4.6527878     -18.911419      226.65141      1.3740002    
     13000   94.832821     -23.802676      4.8909836     -18.911693      90.857981      1.3740002    
     14000   92.437844     -23.678817      4.7674631     -18.911354      174.01753      1.3740002    
     15000   90.4348       -23.576027      4.6641565     -18.911871      169.44498      1.3740002    
     16000   94.721814     -23.797111      4.8852584     -18.911853      167.44362      1.3740002    
     17000   94.197611     -23.769606      4.8582227     -18.911383      125.23501      1.3740002    
     18000   95.327585     -23.828607      4.9165009     -18.912106      116.66989      1.3740002    
     19000   94.937032     -23.80653       4.8963583     -18.910172      80.228506      1.3740002    
     20000   93.701975     -23.743452      4.8326604     -18.910791      136.37315      1.3740002    
     21000   94.615965     -23.791103      4.8797993     -18.911303      103.94586      1.3740002    
     22000   95.018699     -23.812256      4.9005702     -18.911686      97.928087      1.3740002    
     23000   87.976343     -23.448899      4.5373621     -18.911537      199.52013      1.3740002    
     24000   95.98614      -23.862093      4.9504658     -18.911627      19.462479      1.3740002    
     25000   95.451359     -23.834238      4.9228845     -18.911354      65.173211      1.3740002    
     26000   99.044083     -24.019692      5.1081785     -18.911514      20.374121      1.3740002    
     27000   94.438204     -23.782527      4.8706313     -18.911895      100.39055      1.3740002    
     28000   93.797033     -23.749391      4.837563      -18.911828      82.21893       1.3740002    
     29000   92.590665     -23.686672      4.7753448     -18.911327      173.75273      1.3740002    
     30000   90.046311     -23.555721      4.6441203     -18.9116        216.92197      1.3740002    
     31000   94.977188     -23.810362      4.8984293     -18.911932      40.16885       1.3740002    
     32000   92.498452     -23.68234       4.770589      -18.911751      89.943146      1.3740002    
     33000   94.1283       -23.766155      4.854648      -18.911507      117.12573      1.3740002    
     34000   93.640591     -23.740362      4.8294946     -18.910867      116.64605      1.3740002    
     35000   96.718678     -23.899574      4.9882463     -18.911328      49.882593      1.3740002    
     36000   92.792138     -23.696956      4.7857358     -18.911221      63.453929      1.3740002    
     37000   94.395159     -23.77988       4.8684112     -18.911468      92.489777      1.3740002    
     38000   97.040779     -23.916725      5.0048586     -18.911867      5.2399112      1.3740002    
     39000   96.587336     -23.892876      4.9814723     -18.911404      47.239942      1.3740002    
     40000   92.012659     -23.656612      4.7455343     -18.911078      183.84787      1.3740002    
     41000   93.329024     -23.725015      4.8134255     -18.911589      138.54549      1.3740002    
     42000   92.440467     -23.679042      4.7675984     -18.911443      101.50626      1.3740002    
     43000   93.327297     -23.724929      4.8133365     -18.911593      148.13667      1.3740002    
     44000   90.366372     -23.571699      4.6606274     -18.911072      244.86481      1.3740002    
     45000   95.695187     -23.8471        4.9354599     -18.91164       46.08273       1.3740002    
     46000   92.295735     -23.670972      4.7601339     -18.910838      129.30868      1.3740002    
     47000   96.895142     -23.908443      4.9973474     -18.911095      39.506076      1.3740002    
     48000   93.113218     -23.714355      4.8022954     -18.91206       87.289113      1.3740002    
     49000   98.34509      -23.983051      5.0721281     -18.910923     -13.485971      1.3740002    
     50000   94.784066     -23.799791      4.888469      -18.911322      75.316498      1.3740002    
     51000   96.722667     -23.899505      4.988452      -18.911053      48.434616      1.3740002    
     52000   96.666421     -23.896708      4.9855511     -18.911157      64.46421       1.3740002    
     53000   96.831965     -23.905405      4.994089      -18.911316      19.854133      1.3740002    
     54000   93.25423      -23.720667      4.8095681     -18.911099      128.77991      1.3740002    
     55000   91.994627     -23.655728      4.7446043     -18.911124      145.08242      1.3740002    
     56000   89.763463     -23.541133      4.6295324     -18.911601      166.6466       1.3740002    
     57000   93.393808     -23.728419      4.8167668     -18.911652      103.10847      1.3740002    
     58000   92.307905     -23.671659      4.7607616     -18.910898      174.70143      1.3740002    
     59000   98.406405     -23.986881      5.0752905     -18.911591      6.3358659      1.3740002    
     60000   94.448682     -23.782145      4.8711717     -18.910973      141.40789      1.3740002    
     61000   95.98206      -23.861295      4.9502554     -18.91104       81.607574      1.3740002    
     62000   96.364683     -23.881345      4.969989      -18.911356      38.855284      1.3740002    
     63000   99.823135     -24.059961      5.148358      -18.911603     -33.675417      1.3740002    
     64000   91.325028     -23.621768      4.7100698     -18.911698      193.90279      1.3740002    
     65000   99.336349     -24.035175      5.1232521     -18.911923      5.3205514      1.3740002    
     66000   92.418905     -23.677899      4.7664863     -18.911413      156.89054      1.3740002    
     67000   93.707678     -23.744027      4.8329546     -18.911073      127.67304      1.3740002    
     68000   90.736834     -23.591641      4.6797339     -18.911907      194.65622      1.3740002    
     69000   90.350919     -23.571525      4.6598304     -18.911694      206.24037      1.3740002    
     70000   98.960123     -24.014945      5.1038484     -18.911097      6.9902296      1.3740002    
     71000   93.22454      -23.720055      4.8080368     -18.912018      115.07692      1.3740002    
     72000   94.617929     -23.791262      4.8799005     -18.911361      136.35935      1.3740002    
     73000   92.581494     -23.686053      4.7748719     -18.911181      162.33689      1.3740002    
     74000   97.924503     -23.961775      5.0504365     -18.911339      8.7503529      1.3740002    
     75000   93.424279     -23.729865      4.8183383     -18.911526      123.19776      1.3740002    
     76000   91.824154     -23.647227      4.7358122     -18.911415      101.09176      1.3740002    
     77000   94.609538     -23.790781      4.8794678     -18.911314      101.85809      1.3740002    
     78000   89.178384     -23.510368      4.5993571     -18.911011      186.44795      1.3740002    
     79000   90.364395     -23.570996      4.6605254     -18.91047       199.60602      1.3740002    
     80000   91.790531     -23.644995      4.7340781     -18.910917      196.6456       1.3740002    
     81000   95.963859     -23.861207      4.9493167     -18.91189       67.144312      1.3740002    
     82000   92.215013     -23.667179      4.7559707     -18.911208      168.93256      1.3740002    
     83000   96.636798     -23.895304      4.9840233     -18.911281      80.18985       1.3740002    
     84000   94.083525     -23.764316      4.8523388     -18.911977      141.80394      1.3740002    
     85000   92.504652     -23.682568      4.7709087     -18.911659      132.15179      1.3740002    
     86000   91.494083     -23.630591      4.7187888     -18.911802      135.94535      1.3740002    
     87000   91.009132     -23.605199      4.6937776     -18.911421      169.7303       1.3740002    
     88000   95.85756      -23.855011      4.9438343     -18.911177      110.22127      1.3740002    
     89000   95.849085     -23.854838      4.9433972     -18.911441      83.90303       1.3740002    
     90000   96.437965     -23.885637      4.9737685     -18.911868      72.824642      1.3740002    
     91000   94.480388     -23.784429      4.8728069     -18.911622      117.92683      1.3740002    
     92000   98.393333     -23.986098      5.0746163     -18.911481     -23.646704      1.3740002    
     93000   96.854968     -23.906366      4.9952754     -18.911091      52.874812      1.3740002    
     94000   94.585336     -23.789836      4.8782196     -18.911617      96.812668      1.3740002    
     95000   93.571614     -23.736862      4.8259371     -18.910925      128.30417      1.3740002    
     96000   88.212284     -23.461208      4.5495307     -18.911677      275.20873      1.3740002    
     97000   92.590813     -23.687246      4.7753525     -18.911893      162.43437      1.3740002    
     98000   93.638431     -23.740615      4.8293831     -18.911232      111.68102      1.3740002    
     99000   91.783817     -23.645824      4.7337318     -18.912092      128.43731      1.3740002    
    100000   99.001342     -24.017415      5.1059742     -18.911441      1.656629       1.3740002    
    101000   95.163409     -23.819383      4.9080336     -18.91135       69.865191      1.3740002    
    102000   96.418913     -23.884607      4.9727859     -18.911821      89.437749      1.3740002    
    103000   93.850917     -23.751841      4.8403421     -18.911499      126.56024      1.3740002    
    104000   95.635676     -23.844147      4.9323906     -18.911756      71.147575      1.3740002    
    105000   91.295442     -23.62005       4.708544      -18.911506      164.39632      1.3740002    
    106000   96.027609     -23.864427      4.9526045     -18.911822      83.314206      1.3740002    
    107000   93.348541     -23.726027      4.8144321     -18.911594      132.26858      1.3740002    
    108000   94.0698       -23.763107      4.8516309     -18.911476      89.750571      1.3740002    
    109000   93.860336     -23.752331      4.8408278     -18.911503      118.33509      1.3740002    
    110000   93.789995     -23.748628      4.8372        -18.911428      122.58115      1.3740002    
    111000   90.170959     -23.561695      4.650549      -18.911146      226.84088      1.3740002    
    112000   90.315257     -23.569063      4.6579911     -18.911072      206.04421      1.3740002    
    113000   93.358923     -23.726121      4.8149676     -18.911153      154.46416      1.3740002    
    114000   95.975495     -23.861707      4.9499168     -18.91179       53.045174      1.3740002    
    115000   97.662044     -23.948273      5.0369002     -18.911373      33.297384      1.3740002    
    116000   97.108673     -23.920087      5.0083602     -18.911727      24.712164      1.3740002    
    117000   93.625188     -23.740471      4.8287001     -18.911771      135.9422       1.3740002    
    118000   91.529005     -23.63238       4.72059       -18.91179       167.7524       1.3740002    
    119000   94.467355     -23.783882      4.8721347     -18.911747      91.046512      1.3740002    
    120000   97.155421     -23.922167      5.0107712     -18.911396      14.277783      1.3740002    
    121000   94.264653     -23.773615      4.8616804     -18.911935      106.75653      1.3740002    
    122000   97.415155     -23.935792      5.0241669     -18.911625      50.836457      1.3740002    
    123000   95.549046     -23.839482      4.9279227     -18.911559      126.38373      1.3740002    
    124000   93.526845     -23.735689      4.8236281     -18.912061      128.24674      1.3740002    
    125000   91.650433     -23.639204      4.7268526     -18.912352      224.71904      1.3740002    
    126000   94.572122     -23.788992      4.8775381     -18.911454      91.567759      1.3740002    
    127000   95.104136     -23.816793      4.9049766     -18.911816      115.9059       1.3740002    
    128000   94.205312     -23.770692      4.8586199     -18.912072      75.880115      1.3740002    
    129000   94.826385     -23.802917      4.8906517     -18.912265      117.64833      1.3740002    
    130000   93.491991     -23.733513      4.8218306     -18.911683      93.328409      1.3740002    
    131000   86.293538     -23.361627      4.4505718     -18.911055      298.8802       1.3740002    
    132000   90.643957     -23.586177      4.6749438     -18.911234      188.3367       1.3740002    
    133000   95.646495     -23.844289      4.9329486     -18.91134       64.377734      1.3740002    
    134000   92.673301     -23.691181      4.7796068     -18.911575      115.12143      1.3740002    
    135000   98.339094     -23.983334      5.0718189     -18.911515      25.967976      1.3740002    
    136000   94.100209     -23.764445      4.8531992     -18.911246      84.209759      1.3740002    
    137000   93.577684     -23.738012      4.8262501     -18.911762      84.907141      1.3740002    
    138000   91.677609     -23.639901      4.7282541     -18.911647      171.85909      1.3740002    
    139000   90.448934     -23.576642      4.6648855     -18.911756      161.52668      1.3740002    
    140000   93.352311     -23.726161      4.8146266     -18.911534      151.60529      1.3740002    
    141000   95.758423     -23.84982       4.9387213     -18.911098      54.890378      1.3740002    
    142000   94.051943     -23.7623        4.85071       -18.91159       130.28839      1.3740002    
    143000   92.415474     -23.677382      4.7663094     -18.911072      115.49092      1.3740002    
    144000   89.536553     -23.529211      4.6178296     -18.911382      240.44594      1.3740002    
    145000   95.330396     -23.828462      4.9166459     -18.911816      83.258138      1.3740002    
    146000   94.992204     -23.810946      4.8992037     -18.911742      77.998358      1.3740002    
    147000   96.637819     -23.895221      4.984076      -18.911145      44.347161      1.3740002    
    148000   94.28661      -23.774435      4.8628128     -18.911622      116.57154      1.3740002    
    149000   95.413652     -23.832244      4.9209398     -18.911304      111.20433      1.3740002    
    150000   92.26655      -23.669098      4.7586286     -18.910469      141.98424      1.3740002    
    151000   93.34971      -23.725896      4.8144924     -18.911404      152.21856      1.3740002    
    152000   96.780239     -23.903321      4.9914212     -18.9119        85.866948      1.3740002    
    153000   91.62258      -23.637268      4.725416      -18.911852      141.35511      1.3740002    
    154000   97.073435     -23.917753      5.0065428     -18.91121       27.677636      1.3740002    
    155000   92.502554     -23.682105      4.7708005     -18.911304      143.76747      1.3740002    
    156000   87.36836      -23.416471      4.5060055     -18.910465      240.08941      1.3740002    
    157000   95.363171     -23.829554      4.9183363     -18.911218      118.35155      1.3740002    
    158000   92.2485       -23.668853      4.7576977     -18.911155      119.79425      1.3740002    
    159000   95.783073     -23.85105       4.9399926     -18.911057      68.846514      1.3740002    
    160000   95.100054     -23.816328      4.904766      -18.911562      115.8305       1.3740002    
    161000   94.937702     -23.807928      4.8963928     -18.911536      107.29774      1.3740002    
    162000   93.887344     -23.754469      4.8422208     -18.912249      146.77138      1.3740002    
    163000   93.973737     -23.758393      4.8466765     -18.911717      159.34548      1.3740002    
    164000   94.790182     -23.800535      4.8887845     -18.911751      103.41091      1.3740002    
    165000   89.90211      -23.54826       4.6366831     -18.911577      207.2569       1.3740002    
    166000   93.964728     -23.75745       4.8462119     -18.911238      106.3476       1.3740002    
    167000   97.890023     -23.96051       5.0486582     -18.911852      12.955643      1.3740002    
    168000   90.422219     -23.57478       4.6635077     -18.911272      179.30658      1.3740002    
    169000   92.765793     -23.696336      4.784377      -18.911959      159.65451      1.3740002    
    170000   93.609446     -23.73973       4.8278883     -18.911842      192.67842      1.3740002    
    171000   89.649176     -23.535377      4.6236382     -18.911739      229.23139      1.3740002    
    172000   98.240089     -23.979023      5.0667127     -18.912311      24.10566       1.3740002    
    173000   91.500172     -23.630482      4.7191029     -18.911379      155.0818       1.3740002    
    174000   93.321429     -23.724619      4.8130338     -18.911585      133.5513       1.3740002    
    175000   96.08819      -23.867598      4.955729      -18.911869      26.702964      1.3740002    
    176000   91.6696       -23.639433      4.7278411     -18.911592      136.3755       1.3740002    
    177000   94.592421     -23.790097      4.878585      -18.911512      48.27941       1.3740002    
    178000   94.079892     -23.763396      4.8521514     -18.911245      138.35956      1.3740002    
    179000   92.190016     -23.666575      4.7546814     -18.911893      160.25297      1.3740002    
    180000   92.241323     -23.668906      4.7573276     -18.911578      183.74244      1.3740002    
    181000   94.213486     -23.771123      4.8590415     -18.912081      119.04377      1.3740002    
    182000   96.638649     -23.895208      4.9841188     -18.911089      50.54809       1.3740002    
    183000   95.413303     -23.832169      4.9209218     -18.911247      129.45592      1.3740002    
    184000   89.673166     -23.535779      4.6248754     -18.910904      226.31437      1.3740002    
    185000   92.719138     -23.693698      4.7819708     -18.911727      173.66734      1.3740002    
    186000   94.425413     -23.781171      4.8699716     -18.911199      142.43099      1.3740002    
    187000   93.243003     -23.720571      4.808989      -18.911582      122.29477      1.3740002    
    188000   98.855897     -24.010065      5.0984729     -18.911592     -5.7180993      1.3740002    
    189000   94.450473     -23.782872      4.8712641     -18.911608      103.33144      1.3740002    
    190000   92.084293     -23.660458      4.7492288     -18.911229      144.2768       1.3740002    
    191000   93.787293     -23.74887       4.8370607     -18.911809      118.70108      1.3740002    
    192000   97.625361     -23.946958      5.0350083     -18.911949      77.898841      1.3740002    
    193000   94.962683     -23.809301      4.8976812     -18.91162       94.082277      1.3740002    
    194000   100.28437     -24.083973      5.1721461     -18.911827     -11.697207      1.3740002    
    195000   94.865466     -23.804169      4.8926672     -18.911501      100.75308      1.3740002    
    196000   94.474108     -23.783794      4.872483      -18.911311      84.579688      1.3740002    
    197000   94.8344       -23.802914      4.891065      -18.911849      61.388228      1.3740002    
    198000   93.741828     -23.746657      4.8347158     -18.911942      118.19953      1.3740002    
    199000   91.976499     -23.655644      4.7436693     -18.911975      157.0073       1.3740002    
    200000   95.880664     -23.856779      4.9450259     -18.911753      63.331818      1.3740002    
    201000   94.892347     -23.806155      4.8940536     -18.912102      85.249125      1.3740002    
    202000   97.782937     -23.954262      5.0431352     -18.911127      34.240607      1.3740002    
    203000   93.516049     -23.734412      4.8230713     -18.911341      120.53309      1.3740002    
    204000   91.986559     -23.656021      4.7441882     -18.911833      162.78875      1.3740002    
    205000   96.133022     -23.869445      4.9580412     -18.911404      80.829286      1.3740002    
    206000   93.593105     -23.737798      4.8270455     -18.910753      146.66191      1.3740002    
    207000   95.153833     -23.818785      4.9075397     -18.911245      70.961675      1.3740002    
    208000   92.089418     -23.661203      4.7494931     -18.91171       138.15881      1.3740002    
    209000   92.773037     -23.696466      4.7847506     -18.911715      156.11235      1.3740002    
    210000   95.214117     -23.822196      4.9106488     -18.911547      52.42565       1.3740002    
    211000   92.887202     -23.702926      4.7906386     -18.912287      154.05926      1.3740002    
    212000   96.928773     -23.910882      4.9990819     -18.9118        38.81789       1.3740002    
    213000   96.018821     -23.863868      4.9521513     -18.911717      76.412351      1.3740002    
    214000   89.219718     -23.512953      4.6014889     -18.911464      199.89719      1.3740002    
    215000   93.214364     -23.719097      4.807512      -18.911585      103.78017      1.3740002    
    216000   95.887237     -23.857198      4.9453649     -18.911833      102.68875      1.3740002    
    217000   91.256956     -23.618262      4.7065591     -18.911703      195.23311      1.3740002    
    218000   95.196631     -23.820895      4.909747      -18.911148      84.738434      1.3740002    
    219000   96.091083     -23.866696      4.9558782     -18.910818      64.122396      1.3740002    
    220000   95.010307     -23.811486      4.9001374     -18.911349      63.448957      1.3740002    
    221000   89.278352     -23.516237      4.604513      -18.911724      206.6316       1.3740002    
    222000   89.271166     -23.515754      4.6041423     -18.911612      227.72538      1.3740002    
    223000   92.190617     -23.666492      4.7547124     -18.91178       159.90026      1.3740002    
    224000   96.091973     -23.867989      4.9559241     -18.912064      47.419095      1.3740002    
    225000   93.259641     -23.721442      4.8098471     -18.911595      132.30517      1.3740002    
    226000   96.22089      -23.874341      4.9625729     -18.911768      84.42323       1.3740002    
    227000   92.286909     -23.671002      4.7596787     -18.911323      152.86926      1.3740002    
    228000   93.768554     -23.747894      4.8360942     -18.911799      125.1368       1.3740002    
    229000   97.494088     -23.939553      5.0282379     -18.911315     -2.8359834      1.3740002    
    230000   92.616595     -23.687716      4.7766822     -18.911034      225.2066       1.3740002    
    231000   94.83023      -23.802418      4.8908499     -18.911568      97.453988      1.3740002    
    232000   98.431326     -23.988055      5.0765758     -18.911479      5.0141605      1.3740002    
    233000   96.766023     -23.902491      4.9906881     -18.911803      104.69155      1.3740002    
    234000   93.151919     -23.716056      4.8042914     -18.911764      148.53173      1.3740002    
    235000   96.412488     -23.884945      4.9724546     -18.91249       76.539014      1.3740002    
    236000   94.415402     -23.780972      4.8694553     -18.911516      113.48065      1.3740002    
    237000   94.08722      -23.764697      4.8525294     -18.912167      96.800097      1.3740002    
    238000   93.921707     -23.754892      4.843993      -18.910899      131.01695      1.3740002    
    239000   95.135003     -23.8179        4.9065685     -18.911331      106.96689      1.3740002    
    240000   94.369946     -23.778622      4.8671109     -18.911511      103.37937      1.3740002    
    241000   96.019619     -23.863889      4.9521924     -18.911697      86.77956       1.3740002    
    242000   95.393752     -23.831787      4.9199135     -18.911873      64.515836      1.3740002    
    243000   90.867993     -23.59749       4.6864984     -18.910992      195.06484      1.3740002    
    244000   91.519244     -23.631366      4.7200865     -18.911279      166.80542      1.3740002    
    245000   91.390818     -23.624357      4.7134629     -18.910894      196.79716      1.3740002    
    246000   95.489095     -23.835834      4.9248308     -18.911003      87.635181      1.3740002    
    247000   91.381528     -23.624557      4.7129838     -18.911574      185.54229      1.3740002    
    248000   89.736452     -23.539502      4.6281394     -18.911363      163.1418       1.3740002    
    249000   96.276193     -23.877253      4.9654252     -18.911828      41.682982      1.3740002    
    250000   96.999117     -23.914266      5.0027098     -18.911556      21.230609      1.3740002    
    251000   93.467119     -23.731718      4.8205477     -18.911171      110.60156      1.3740002    
    252000   94.382013     -23.779189      4.8677332     -18.911456      87.758662      1.3740002    
    253000   90.087109     -23.557705      4.6462245     -18.911481      245.76664      1.3740002    
    254000   93.015413     -23.708526      4.7972511     -18.911275      123.65659      1.3740002    
    255000   93.496237     -23.733283      4.8220495     -18.911233      90.333211      1.3740002    
    256000   96.033054     -23.864352      4.9528853     -18.911467      61.440125      1.3740002    
    257000   94.318165     -23.775714      4.8644403     -18.911274      155.28057      1.3740002    
    258000   93.299714     -23.723362      4.8119139     -18.911448      138.39046      1.3740002    
    259000   94.207703     -23.770376      4.8587433     -18.911633      113.54075      1.3740002    
    260000   97.671211     -23.948913      5.037373      -18.91154       3.535462       1.3740002    
    261000   89.422814     -23.523384      4.6119635     -18.91142       270.46135      1.3740002    
    262000   94.092256     -23.764113      4.8527891     -18.911324      125.30379      1.3740002    
    263000   94.627771     -23.791776      4.8804082     -18.911368      144.2873       1.3740002    
    264000   93.671625     -23.74281       4.8310951     -18.911715      159.76928      1.3740002    
    265000   97.582304     -23.944279      5.0327876     -18.911492      44.747459      1.3740002    
    266000   90.979721     -23.603833      4.6922607     -18.911572      171.82142      1.3740002    
    267000   98.686585     -24.001411      5.0897407     -18.911671      14.932358      1.3740002    
    268000   93.122525     -23.714709      4.8027754     -18.911934      157.03524      1.3740002    
    269000   96.128288     -23.869687      4.957797      -18.91189       85.854462      1.3740002    
    270000   91.852166     -23.648275      4.7372569     -18.911018      184.09391      1.3740002    
    271000   96.767091     -23.902724      4.9907432     -18.911981      62.699545      1.3740002    
    272000   92.769847     -23.695583      4.7845861     -18.910997      139.07218      1.3740002    
    273000   93.074509     -23.711931      4.800299      -18.911632      142.90358      1.3740002    
    274000   91.51881      -23.63158       4.7200641     -18.911516      167.76906      1.3740002    
    275000   91.506378     -23.630842      4.7194229     -18.911419      147.82485      1.3740002    
    276000   96.679009     -23.898337      4.9862003     -18.912136      66.173386      1.3740002    
    277000   94.106511     -23.765304      4.8535243     -18.911779      83.311852      1.3740002    
    278000   93.487079     -23.733015      4.8215772     -18.911438      162.51773      1.3740002    
    279000   93.69998      -23.743133      4.8325575     -18.910575      155.61877      1.3740002    
    280000   89.871977     -23.54658       4.6351291     -18.911451      200.00543      1.3740002    
    281000   92.373494     -23.675858      4.7641443     -18.911714      142.78549      1.3740002    
    282000   93.269888     -23.721997      4.8103756     -18.911621      139.84606      1.3740002    
    283000   90.748787     -23.591701      4.6803504     -18.91135       166.39778      1.3740002    
    284000   92.122595     -23.662909      4.7512042     -18.911704      160.84916      1.3740002    
    285000   94.763101     -23.798855      4.8873878     -18.911467      145.6046       1.3740002    
    286000   93.977259     -23.7586        4.8468582     -18.911742      143.71155      1.3740002    
    287000   94.762567     -23.798438      4.8873602     -18.911077      118.60473      1.3740002    
    288000   95.281344     -23.826194      4.9141161     -18.912078      79.907017      1.3740002    
    289000   95.873454     -23.856331      4.944654      -18.911677      58.52127       1.3740002    
    290000   92.286218     -23.671043      4.759643      -18.9114        145.3544       1.3740002    
    291000   93.466988     -23.732007      4.820541      -18.911466      148.38387      1.3740002    
    292000   91.951802     -23.653911      4.7423956     -18.911516      193.87149      1.3740002    
    293000   95.244959     -23.822949      4.9122395     -18.910709      81.40094       1.3740002    
    294000   93.684236     -23.743001      4.8317455     -18.911255      149.53947      1.3740002    
    295000   96.028669     -23.863625      4.9526592     -18.910966      72.896771      1.3740002    
    296000   95.243172     -23.823708      4.9121473     -18.91156       125.62992      1.3740002    
    297000   96.785245     -23.903292      4.9916795     -18.911612      47.208854      1.3740002    
    298000   91.302087     -23.620245      4.7088867     -18.911358      175.43012      1.3740002    
    299000   97.244895     -23.926759      5.0153858     -18.911373      21.608048      1.3740002    
    300000   91.804323     -23.646025      4.7347894     -18.911236      126.81314      1.3740002    
    301000   91.830621     -23.647868      4.7361457     -18.911723      115.86943      1.3740002    
    302000   93.374718     -23.727078      4.8157822     -18.911296      118.48776      1.3740002    
    303000   89.209335     -23.512204      4.6009534     -18.91125       256.04462      1.3740002    
    304000   90.379892     -23.572811      4.6613247     -18.911487      231.8722       1.3740002    
    305000   94.798221     -23.800696      4.8891991     -18.911497      157.6347       1.3740002    
    306000   92.212257     -23.66733       4.7558285     -18.911502      128.51591      1.3740002    
    307000   95.88018      -23.856721      4.9450009     -18.911721      32.444431      1.3740002    
    308000   91.55441      -23.634131      4.7219002     -18.912231      159.48514      1.3740002    
    309000   91.47938      -23.629159      4.7180305     -18.911128      113.04525      1.3740002    
    310000   90.028892     -23.554342      4.6432219     -18.91112       242.83095      1.3740002    
    311000   93.229868     -23.720006      4.8083116     -18.911694      125.33492      1.3740002    
    312000   92.212123     -23.667428      4.7558216     -18.911606      174.83351      1.3740002    
    313000   90.502722     -23.579102      4.6676596     -18.911442      200.50177      1.3740002    
    314000   92.655932     -23.68974       4.778711      -18.91103       127.28245      1.3740002    
    315000   95.364777     -23.829702      4.9184191     -18.911283      79.164526      1.3740002    
    316000   92.772809     -23.696515      4.7847388     -18.911777      114.41301      1.3740002    
    317000   92.659244     -23.689821      4.7788818     -18.910939      202.55553      1.3740002    
    318000   96.713247     -23.899135      4.9879662     -18.911169      83.138103      1.3740002    
    319000   95.899988     -23.857561      4.9460225     -18.911538      59.828163      1.3740002    
    320000   92.329425     -23.673237      4.7618714     -18.911365      137.33974      1.3740002    
    321000   95.335923     -23.828108      4.916931      -18.911177      77.833768      1.3740002    
    322000   95.431685     -23.833382      4.9218699     -18.911512      64.284721      1.3740002    
    323000   91.82453      -23.647234      4.7358316     -18.911403      153.42241      1.3740002    
    324000   91.259201     -23.617978      4.7066748     -18.911303      184.98598      1.3740002    
    325000   95.480143     -23.835569      4.9243691     -18.9112        84.879893      1.3740002    
    326000   93.015043     -23.709106      4.7972321     -18.911874      91.238731      1.3740002    
    327000   90.794258     -23.594327      4.6826955     -18.911631      180.57731      1.3740002    
    328000   95.699061     -23.847222      4.9356597     -18.911562      62.575644      1.3740002    
    329000   97.343774     -23.931797      5.0204854     -18.911311      86.423883      1.3740002    
    330000   96.772312     -23.902613      4.9910124     -18.9116        116.61491      1.3740002    
    331000   95.377919     -23.830609      4.9190969     -18.911512      145.45329      1.3740002    
    332000   88.834428     -23.493031      4.5816177     -18.911413      277.10651      1.3740002    
    333000   95.808385     -23.852608      4.9412981     -18.91131       71.985045      1.3740002    
    334000   90.66848      -23.587778      4.6762085     -18.911569      177.81481      1.3740002    
    335000   96.068889     -23.865994      4.9547335     -18.91126       52.215751      1.3740002    
    336000   96.003203     -23.862557      4.9513458     -18.911211      65.568313      1.3740002    
    337000   90.660615     -23.587644      4.6758029     -18.911841      220.6449       1.3740002    
    338000   94.123487     -23.765661      4.8543998     -18.911261      137.57785      1.3740002    
    339000   91.479007     -23.629233      4.7180113     -18.911221      220.20838      1.3740002    
    340000   92.51375      -23.683375      4.771378      -18.911997      124.30888      1.3740002    
    341000   92.511794     -23.68303       4.7712771     -18.911753      157.18139      1.3740002    
    342000   98.913834     -24.013317      5.101461      -18.911856      25.224326      1.3740002    
    343000   94.130253     -23.766305      4.8547488     -18.911556      78.741289      1.3740002    
    344000   94.561889     -23.787898      4.8770103     -18.910887      147.00495      1.3740002    
    345000   95.588017     -23.841214      4.9299327     -18.911282      97.893862      1.3740002    
    346000   91.448259     -23.627885      4.7164254     -18.911459      156.77443      1.3740002    
    347000   99.366757     -24.036201      5.1248204     -18.911381     -4.2918281      1.3740002    
    348000   98.645249     -23.998966      5.0876088     -18.911357      57.359799      1.3740002    
    349000   96.778749     -23.903206      4.9913444     -18.911862      52.743225      1.3740002    
    350000   97.803468     -23.955812      5.0441941     -18.911618      16.126608      1.3740002    
    351000   100.65943     -24.10329       5.1914896     -18.9118        16.806211      1.3740002    
    352000   93.808673     -23.749563      4.8381634     -18.9114        120.87228      1.3740002    
    353000   93.886522     -23.75335       4.8421784     -18.911171      136.27372      1.3740002    
    354000   91.501506     -23.630968      4.7191717     -18.911796      170.57902      1.3740002    
    355000   98.757611     -24.005246      5.0934038     -18.911843      26.945519      1.3740002    
    356000   95.375909     -23.830582      4.9189932     -18.911588      91.923277      1.3740002    
    357000   96.819575     -23.905258      4.99345       -18.911808      62.645459      1.3740002    
    358000   90.531397     -23.580509      4.6691385     -18.911371      194.03194      1.3740002    
    359000   94.220714     -23.770914      4.8594143     -18.9115        146.37615      1.3740002    
    360000   87.875657     -23.44321       4.5321693     -18.911041      280.87944      1.3740002    
    361000   91.95565      -23.653917      4.7425941     -18.911323      166.38925      1.3740002    
    362000   94.707333     -23.796295      4.8845116     -18.911783      104.98248      1.3740002    
    363000   96.43563      -23.884991      4.9736481     -18.911342      59.899391      1.3740002    
    364000   93.27203      -23.722277      4.8104861     -18.911791      144.70649      1.3740002    
    365000   95.524027     -23.838092      4.9266324     -18.91146       88.994945      1.3740002    
    366000   96.836713     -23.905946      4.9943339     -18.911612      52.652423      1.3740002    
    367000   97.831118     -23.956586      5.0456201     -18.910966     -1.0053897      1.3740002    
    368000   92.159051     -23.664779      4.7530844     -18.911694      185.94378      1.3740002    
    369000   92.065446     -23.659448      4.7482567     -18.911191      156.93959      1.3740002    
    370000   94.943447     -23.809099      4.8966891     -18.91241       69.787191      1.3740002    
    371000   94.018152     -23.760827      4.8489672     -18.911859      83.392368      1.3740002    
    372000   89.927238     -23.549238      4.6379791     -18.911259      209.44006      1.3740002    
    373000   99.38686      -24.037623      5.1258572     -18.911766     -35.238081      1.3740002    
    374000   88.445273     -23.473681      4.5615471     -18.912134      204.40327      1.3740002    
    375000   93.248736     -23.720946      4.8092847     -18.911661      137.89686      1.3740002    
    376000   92.673786     -23.691131      4.7796318     -18.911499      119.29615      1.3740002    
    377000   90.990878     -23.604574      4.6928362     -18.911738      151.63555      1.3740002    
    378000   93.827145     -23.750714      4.839116      -18.911598      118.06352      1.3740002    
    379000   91.478693     -23.628964      4.7179951     -18.910969      137.09144      1.3740002    
    380000   93.106586     -23.713237      4.8019534     -18.911284      136.81728      1.3740002    
    381000   92.421593     -23.678258      4.766625      -18.911633      131.42116      1.3740002    
    382000   91.447807     -23.627833      4.7164022     -18.911431      187.55765      1.3740002    
    383000   93.162037     -23.716559      4.8048132     -18.911745      135.91347      1.3740002    
    384000   90.648311     -23.586554      4.6751683     -18.911386      234.26708      1.3740002    
    385000   94.784953     -23.800331      4.8885148     -18.911816      96.03678       1.3740002    
    386000   96.678683     -23.897572      4.9861835     -18.911388      42.325428      1.3740002    
    387000   92.27001      -23.670602      4.7588071     -18.911795      135.86446      1.3740002    
    388000   94.344919     -23.777078      4.8658201     -18.911258      145.5385       1.3740002    
    389000   97.084581     -23.918926      5.0071176     -18.911809      97.866813      1.3740002    
    390000   94.229578     -23.771183      4.8598715     -18.911311      132.39925      1.3740002    
    391000   96.203842     -23.872607      4.9616937     -18.910913      34.140406      1.3740002    
    392000   96.874816     -23.907951      4.996299      -18.911652      46.189957      1.3740002    
    393000   93.735463     -23.74589       4.8343875     -18.911502      118.50028      1.3740002    
    394000   93.763973     -23.747353      4.8358579     -18.911495      123.91987      1.3740002    
    395000   93.664095     -23.741844      4.8307068     -18.911137      75.352615      1.3740002    
    396000   94.996294     -23.811403      4.8994146     -18.911989      62.700838      1.3740002    
    397000   94.099035     -23.764382      4.8531387     -18.911243      139.84473      1.3740002    
    398000   91.297832     -23.620018      4.7086673     -18.911351      145.86859      1.3740002    
    399000   93.4731       -23.732207      4.8208562     -18.911351      165.75388      1.3740002    
    400000   93.402032     -23.728729      4.8171909     -18.911538      123.28401      1.3740002    
    401000   94.497913     -23.784785      4.8737107     -18.911074      67.756741      1.3740002    
    402000   93.924396     -23.755837      4.8441317     -18.911705      102.90799      1.3740002    
    403000   91.984634     -23.655261      4.7440889     -18.911172      176.90404      1.3740002    
    404000   93.341646     -23.725632      4.8140765     -18.911555      160.44881      1.3740002    
    405000   97.403197     -23.934753      5.0235502     -18.911203      15.891313      1.3740002    
    406000   98.353481     -23.983784      5.0725609     -18.911223      3.9045141      1.3740002    
    407000   93.729877     -23.74494       4.8340995     -18.910841      160.10756      1.3740002    
    408000   91.054207     -23.607451      4.6961023     -18.911349      167.1004       1.3740002    
    409000   93.830198     -23.750874      4.8392735     -18.911601      136.16027      1.3740002    
    410000   93.116        -23.714704      4.8024389     -18.912265      128.92526      1.3740002    
    411000   92.409926     -23.677533      4.7660233     -18.911509      162.23263      1.3740002    
    412000   93.235817     -23.720256      4.8086184     -18.911638      136.35358      1.3740002    
    413000   88.187474     -23.459743      4.5482511     -18.911492      230.65977      1.3740002    
    414000   93.45967      -23.731736      4.8201636     -18.911573      140.13222      1.3740002    
    415000   96.495889     -23.88812       4.9767559     -18.911364      62.434203      1.3740002    
    416000   92.251679     -23.6694        4.7578617     -18.911538      142.1385       1.3740002    
    417000   97.133738     -23.920379      5.0096529     -18.910727      107.84422      1.3740002    
    418000   95.699291     -23.847624      4.9356716     -18.911952      58.816198      1.3740002    
    419000   95.095749     -23.815637      4.904544      -18.911093      102.08177      1.3740002    
    420000   95.649631     -23.844105      4.9331104     -18.910994      64.453958      1.3740002    
    421000   96.432324     -23.885117      4.9734776     -18.911639      33.46938       1.3740002    
    422000   91.682779     -23.640025      4.7285208     -18.911504      163.23528      1.3740002    
    423000   96.027407     -23.863996      4.9525941     -18.911402      48.491635      1.3740002    
    424000   92.94517      -23.705136      4.7936284     -18.911507      138.88933      1.3740002    
    425000   95.73746      -23.84933       4.9376401     -18.91169       47.856024      1.3740002    
    426000   93.862497     -23.752437      4.8409393     -18.911498      156.26814      1.3740002    
    427000   92.953074     -23.706404      4.794036      -18.912368      119.88078      1.3740002    
    428000   92.638986     -23.689111      4.777837      -18.911274      165.46247      1.3740002    
    429000   86.787068     -23.387809      4.4760255     -18.911784      268.02789      1.3740002    
    430000   95.749557     -23.849831      4.938264      -18.911566      64.504918      1.3740002    
    431000   93.073036     -23.712051      4.800223      -18.911828      123.53417      1.3740002    
    432000   95.416438     -23.833155      4.9210835     -18.912071      59.97705       1.3740002    
    433000   92.473934     -23.680829      4.7693245     -18.911505      185.37101      1.3740002    
    434000   89.746111     -23.540315      4.6286375     -18.911677      239.28091      1.3740002    
    435000   94.782064     -23.800007      4.8883658     -18.911641      161.05432      1.3740002    
    436000   98.153674     -23.97386       5.0622559     -18.911604      44.084551      1.3740002    
    437000   92.515208     -23.68345       4.7714531     -18.911997      160.01345      1.3740002    
    438000   89.573959     -23.531413      4.6197588     -18.911655      226.13467      1.3740002    
    439000   91.466403     -23.628914      4.7173612     -18.911553      162.70819      1.3740002    
    440000   91.767525     -23.644374      4.7328916     -18.911482      126.24717      1.3740002    
    441000   95.447273     -23.834217      4.9226738     -18.911544      88.738334      1.3740002    
    442000   97.836505     -23.956887      5.045898      -18.910989      40.483414      1.3740002    
    443000   96.545114     -23.890747      4.9792947     -18.911453      64.049428      1.3740002    
    444000   93.971024     -23.75789       4.8465365     -18.911354      111.19284      1.3740002    
    445000   93.420814     -23.729669      4.8181596     -18.911509      101.44271      1.3740002    
    446000   99.143657     -24.025198      5.1133141     -18.911884     -29.968331      1.3740002    
    447000   92.753968     -23.695397      4.7837671     -18.91163       122.54323      1.3740002    
    448000   94.680121     -23.794522      4.8831081     -18.911414      93.049066      1.3740002    
    449000   96.267509     -23.876719      4.9649773     -18.911741      27.689763      1.3740002    
    450000   94.239022     -23.771701      4.8603585     -18.911342      77.780942      1.3740002    
    451000   96.146084     -23.870251      4.9587148     -18.911537      62.041352      1.3740002    
    452000   93.778707     -23.748494      4.8366179     -18.911876      123.27414      1.3740002    
    453000   93.860426     -23.752033      4.8408325     -18.9112        153.23914      1.3740002    
    454000   95.161116     -23.819102      4.9079153     -18.911187      75.798614      1.3740002    
    455000   89.399174     -23.522382      4.6107443     -18.911638      197.46179      1.3740002    
    456000   93.824804     -23.750082      4.8389953     -18.911087      158.06388      1.3740002    
    457000   90.268769     -23.566874      4.6555935     -18.91128       200.57952      1.3740002    
    458000   97.068635     -23.918383      5.0062952     -18.912088     -12.744509      1.3740002    
    459000   95.720759     -23.848541      4.9367788     -18.911762      52.074498      1.3740002    
    460000   96.286665     -23.877779      4.9659653     -18.911813      55.44079       1.3740002    
    461000   96.214738     -23.873859      4.9622557     -18.911603      95.230002      1.3740002    
    462000   95.110834     -23.816189      4.905322      -18.910867      86.106258      1.3740002    
    463000   92.749318     -23.695124      4.7835273     -18.911597      140.2221       1.3740002    
    464000   94.313056     -23.775592      4.8641768     -18.911415      122.64556      1.3740002    
    465000   92.914462     -23.703111      4.7920446     -18.911067      157.05333      1.3740002    
    466000   93.632308     -23.739916      4.8290674     -18.910849      147.52682      1.3740002    
    467000   99.01605      -24.018226      5.1067327     -18.911493      39.599061      1.3740002    
    468000   96.089716     -23.868247      4.9558077     -18.912439      84.190673      1.3740002    
    469000   96.840531     -23.906831      4.9945308     -18.9123        49.636023      1.3740002    
    470000   95.728061     -23.849465      4.9371554     -18.912309      42.164069      1.3740002    
    471000   90.762965     -23.592588      4.6810816     -18.911506      168.00952      1.3740002    
    472000   92.971406     -23.706303      4.7949815     -18.911322      147.43342      1.3740002    
    473000   96.293042     -23.877951      4.9662942     -18.911657      51.577114      1.3740002    
    474000   92.267316     -23.670508      4.7586682     -18.91184       153.4054       1.3740002    
    475000   96.787797     -23.903512      4.9918111     -18.911701      32.570096      1.3740002    
    476000   97.161704     -23.92278       5.0110952     -18.911685      53.018207      1.3740002    
    477000   94.742862     -23.797845      4.886344      -18.911501      138.75228      1.3740002    
    478000   94.027304     -23.760851      4.8494392     -18.911412      137.23952      1.3740002    
    479000   94.233244     -23.771327      4.8600605     -18.911267      99.32232       1.3740002    
    480000   92.965763     -23.706264      4.7946904     -18.911574      136.98627      1.3740002    
    481000   95.139808     -23.817933      4.9068163     -18.911117      89.100195      1.3740002    
    482000   88.988261     -23.500607      4.5895516     -18.911055      165.14884      1.3740002    
    483000   93.840589     -23.751282      4.8398094     -18.911473      148.49274      1.3740002    
    484000   94.94113      -23.8077        4.8965696     -18.911131      67.808091      1.3740002    
    485000   94.6481       -23.792719      4.8814566     -18.911263      52.435658      1.3740002    
    486000   91.643876     -23.637015      4.7265144     -18.9105        182.25436      1.3740002    
    487000   94.797235     -23.80092       4.8891482     -18.911772      89.8717        1.3740002    
    488000   88.289436     -23.464686      4.5535098     -18.911176      222.07018      1.3740002    
    489000   92.740959     -23.694766      4.7830962     -18.911669      115.67442      1.3740002    
    490000   91.219589     -23.616265      4.7046319     -18.911633      157.41726      1.3740002    
    491000   89.655434     -23.535297      4.6239609     -18.911337      181.27914      1.3740002    
    492000   89.714049     -23.538159      4.6269839     -18.911175      249.50733      1.3740002    
    493000   99.423589     -24.039215      5.1277515     -18.911464     -24.254663      1.3740002    
    494000   89.797165     -23.542395      4.6312706     -18.911124      240.58003      1.3740002    
    495000   91.902259     -23.651213      4.7398404     -18.911372      127.88599      1.3740002    
    496000   92.156472     -23.6643        4.7529514     -18.911348      185.43507      1.3740002    
    497000   91.757792     -23.643724      4.7323896     -18.911335      157.53458      1.3740002    
    498000   96.134007     -23.868845      4.958092      -18.910753      101.67454      1.3740002    
    499000   94.677894     -23.794415      4.8829933     -18.911422      76.509787      1.3740002    
    500000   97.472304     -23.938143      5.0271144     -18.911029     -14.450193      1.3740002    
    501000   92.988248     -23.707412      4.7958501     -18.911562      145.21814      1.3740002    
    502000   94.508223     -23.785728      4.8742425     -18.911485      101.32437      1.3740002    
    503000   95.787966     -23.851912      4.940245      -18.911667      104.32179      1.3740002    
    504000   93.322338     -23.724259      4.8130807     -18.911178      115.16317      1.3740002    
    505000   92.873246     -23.701983      4.7899189     -18.912064      102.39406      1.3740002    
    506000   96.960645     -23.912152      5.0007257     -18.911427      46.51483       1.3740002    
    507000   92.824209     -23.698446      4.7873898     -18.911056      155.9466       1.3740002    
    508000   96.008254     -23.863343      4.9516063     -18.911737      95.361849      1.3740002    
    509000   97.731786     -23.952482      5.0404971     -18.911984      23.468315      1.3740002    
    510000   90.962906     -23.602658      4.6913935     -18.911264      161.62215      1.3740002    
    511000   90.343554     -23.571206      4.6594506     -18.911755      193.73095      1.3740002    
    512000   92.718931     -23.693429      4.7819601     -18.911469      137.50249      1.3740002    
    513000   97.078988     -23.918072      5.0068292     -18.911243      45.312956      1.3740002    
    514000   95.546237     -23.839285      4.9277779     -18.911507      63.775072      1.3740002    
    515000   98.043674     -23.967948      5.0565827     -18.911366      50.704343      1.3740002    
    516000   96.022627     -23.863904      4.9523476     -18.911556      80.656493      1.3740002    
    517000   92.591703     -23.687401      4.7753984     -18.912003      101.35245      1.3740002    
    518000   93.555045     -23.737258      4.8250825     -18.912175      142.66         1.3740002    
    519000   94.398885     -23.780488      4.8686034     -18.911885      79.218002      1.3740002    
    520000   91.724206     -23.642509      4.7306574     -18.911852      238.64133      1.3740002    
    521000   98.080042     -23.970456      5.0584583     -18.911998      19.115167      1.3740002    
    522000   90.57137      -23.58327       4.6712001     -18.91207       165.66849      1.3740002    
    523000   92.001574     -23.655955      4.7449626     -18.910992      192.21219      1.3740002    
    524000   95.493853     -23.836518      4.9250762     -18.911442      96.645389      1.3740002    
    525000   88.911383     -23.497181      4.5855866     -18.911594      222.31528      1.3740002    
    526000   92.845949     -23.700272      4.788511      -18.911761      133.81424      1.3740002    
    527000   94.263548     -23.773956      4.8616234     -18.912333      117.39101      1.3740002    
    528000   91.136626     -23.61178       4.7003531     -18.911427      210.07516      1.3740002    
    529000   93.327265     -23.724758      4.8133348     -18.911424      123.90823      1.3740002    
    530000   92.466467     -23.680606      4.7689393     -18.911667      179.3528       1.3740002    
    531000   96.118216     -23.868957      4.9572775     -18.911679      78.764654      1.3740002    
    532000   94.366405     -23.778262      4.8669283     -18.911334      76.57118       1.3740002    
    533000   91.831275     -23.647853      4.7361794     -18.911673      186.12561      1.3740002    
    534000   94.241643     -23.771613      4.8604937     -18.911119      120.77187      1.3740002    
    535000   89.534769     -23.52914       4.6177376     -18.911403      184.71093      1.3740002    
    536000   95.509028     -23.836917      4.9258588     -18.911058      128.52444      1.3740002    
    537000   90.763535     -23.592071      4.681111      -18.91096       152.64701      1.3740002    
    538000   97.959699     -23.963137      5.0522517     -18.910885      11.329685      1.3740002    
    539000   92.451999     -23.679728      4.7681932     -18.911535      156.24162      1.3740002    
    540000   94.311877     -23.775515      4.864116      -18.911399      135.55858      1.3740002    
    541000   94.399873     -23.780689      4.8686543     -18.912035      86.205779      1.3740002    
    542000   90.012536     -23.554099      4.6423784     -18.91172       182.34936      1.3740002    
    543000   92.611366     -23.687882      4.7764125     -18.91147       137.62007      1.3740002    
    544000   92.287711     -23.671441      4.7597201     -18.911721      131.35173      1.3740002    
    545000   97.721885     -23.951807      5.0399865     -18.911821      23.558115      1.3740002    
    546000   96.30079      -23.878473      4.9666938     -18.911779      78.677869      1.3740002    
    547000   97.626633     -23.946879      5.0350739     -18.911805     -7.4315208      1.3740002    
    548000   92.182884     -23.66634       4.7543136     -18.912027      114.47679      1.3740002    
    549000   93.506344     -23.734002      4.8225708     -18.911432      136.88474      1.3740002    
    550000   95.837049     -23.854451      4.9427764     -18.911675      41.978559      1.3740002    
    551000   94.398721     -23.78026       4.8685949     -18.911665      64.91765       1.3740002    
    552000   92.773231     -23.69624       4.7847606     -18.911479      84.140778      1.3740002    
    553000   94.503552     -23.786098      4.8740016     -18.912096      91.865083      1.3740002    
    554000   96.273623     -23.876449      4.9652926     -18.911156      30.576595      1.3740002    
    555000   98.079823     -23.969473      5.0584471     -18.911026      10.246076      1.3740002    
    556000   95.36858      -23.830375      4.9186152     -18.91176       70.64491       1.3740002    
    557000   89.299515     -23.517059      4.6056045     -18.911454      240.60782      1.3740002    
    558000   95.230605     -23.82314       4.9114992     -18.911641      76.981966      1.3740002    
    559000   93.520746     -23.733878      4.8233136     -18.910565      135.45873      1.3740002    
    560000   92.827726     -23.699177      4.7875712     -18.911606      183.6846       1.3740002    
    561000   93.671968     -23.742354      4.8311128     -18.911241      179.95205      1.3740002    
    562000   91.558603     -23.633581      4.7221164     -18.911464      148.12254      1.3740002    
    563000   94.217928     -23.771003      4.8592706     -18.911732      132.67136      1.3740002    
    564000   99.05885      -24.020913      5.1089402     -18.911973      5.6382094      1.3740002    
    565000   94.772101     -23.799271      4.887852      -18.911419      76.568167      1.3740002    
    566000   90.155156     -23.560724      4.6497339     -18.91099       217.88451      1.3740002    
    567000   92.652458     -23.689844      4.7785318     -18.911313      114.31676      1.3740002    
    568000   95.136956     -23.818054      4.9066692     -18.911385      75.242021      1.3740002    
    569000   97.851658     -23.958594      5.0466795     -18.911915      28.569685      1.3740002    
    570000   91.350376     -23.623502      4.7113772     -18.912125      178.08971      1.3740002    
    571000   94.720833     -23.797097      4.8852078     -18.911889      92.537673      1.3740002    
    572000   93.473998     -23.732756      4.8209026     -18.911853      174.97917      1.3740002    
    573000   95.043275     -23.813384      4.9018377     -18.911547      62.830524      1.3740002    
    574000   94.703085     -23.796485      4.8842925     -18.912193      86.895573      1.3740002    
    575000   87.285346     -23.413014      4.5017241     -18.91129       220.61981      1.3740002    
    576000   87.806634     -23.440482      4.5286094     -18.911872      225.74842      1.3740002    
    577000   93.35449      -23.726545      4.8147389     -18.911806      135.21803      1.3740002    
    578000   95.585168     -23.841014      4.9297857     -18.911228      85.518764      1.3740002    
    579000   99.898012     -24.063619      5.1522198     -18.911399      42.278232      1.3740002    
    580000   94.781142     -23.799372      4.8883182     -18.911054      98.548397      1.3740002    
    581000   92.806025     -23.697079      4.786452      -18.910627      201.08428      1.3740002    
    582000   94.333763     -23.776697      4.8652448     -18.911452      96.283898      1.3740002    
    583000   92.33473      -23.67399       4.762145      -18.911845      170.08049      1.3740002    
    584000   94.338209     -23.776173      4.8654741     -18.910699      72.720647      1.3740002    
    585000   91.980858     -23.655552      4.7438942     -18.911658      164.28303      1.3740002    
    586000   94.888191     -23.80507       4.8938393     -18.911231      138.55033      1.3740002    
    587000   96.087839     -23.867311      4.9557109     -18.9116        55.938138      1.3740002    
    588000   92.333891     -23.673644      4.7621018     -18.911542      176.61247      1.3740002    
    589000   99.694221     -24.053365      5.1417093     -18.911655     -30.652256      1.3740002    
    590000   93.908524     -23.754857      4.8433131     -18.911544      117.32417      1.3740002    
    591000   93.205597     -23.718837      4.8070598     -18.911777      183.12213      1.3740002    
    592000   88.886135     -23.495499      4.5842845     -18.911215      198.40902      1.3740002    
    593000   94.781049     -23.799306      4.8883134     -18.910993      104.52436      1.3740002    
    594000   96.057654     -23.865583      4.9541541     -18.911429      78.903185      1.3740002    
    595000   94.177989     -23.76863       4.8572107     -18.91142       101.04997      1.3740002    
    596000   92.463416     -23.680409      4.768782      -18.911627      142.73424      1.3740002    
    597000   96.381786     -23.882329      4.9708711     -18.911457      58.084215      1.3740002    
    598000   92.200473     -23.666499      4.7552207     -18.911278      168.73672      1.3740002    
    599000   96.433964     -23.884589      4.9735622     -18.911027      26.301118      1.3740002    
    600000   91.125585     -23.610485      4.6997836     -18.910701      175.37614      1.3740002    
    601000   97.737738     -23.952759      5.0408041     -18.911955      58.517562      1.3740002    
    602000   93.992734     -23.758684      4.8476563     -18.911027      149.82344      1.3740002    
    603000   93.110031     -23.713645      4.802131      -18.911514      145.98553      1.3740002    
    604000   93.57996      -23.737775      4.8263675     -18.911407      140.4198       1.3740002    
    605000   92.92609      -23.70403       4.7926443     -18.911385      136.44492      1.3740002    
    606000   96.288381     -23.877938      4.9660538     -18.911885      94.072695      1.3740002    
    607000   94.979493     -23.809774      4.8985482     -18.911226      97.887017      1.3740002    
    608000   93.115536     -23.71348       4.8024149     -18.911065      111.99317      1.3740002    
    609000   93.56724      -23.73776       4.8257115     -18.912049      110.03149      1.3740002    
    610000   89.569776     -23.530992      4.6195431     -18.911449      192.32689      1.3740002    
    611000   94.212454     -23.769692      4.8589883     -18.910704      110.94155      1.3740002    
    612000   92.788851     -23.696865      4.7855662     -18.911298      110.87279      1.3740002    
    613000   91.990678     -23.655775      4.7444006     -18.911374      120.48572      1.3740002    
    614000   94.396809     -23.780061      4.8684963     -18.911565      134.45977      1.3740002    
    615000   96.539883     -23.890319      4.979025      -18.911294      125.85815      1.3740002    
    616000   92.697893     -23.692237      4.7808751     -18.911362      130.65858      1.3740002    
    617000   93.763155     -23.747073      4.8358158     -18.911258      91.753831      1.3740002    
    618000   95.223259     -23.821816      4.9111203     -18.910695      69.65504       1.3740002    
    619000   87.483438     -23.423101      4.5119406     -18.91116       299.75221      1.3740002    
    620000   92.924751     -23.703707      4.7925752     -18.911131      152.45776      1.3740002    
    621000   93.101499     -23.713186      4.801691      -18.911495      122.95061      1.3740002    
    622000   96.368371     -23.881987      4.9701793     -18.911808      126.17453      1.3740002    
    623000   94.838317     -23.80287       4.891267      -18.911603      127.05261      1.3740002    
    624000   95.068491     -23.814717      4.9031382     -18.911579      130.46863      1.3740002    
    625000   96.408352     -23.883709      4.9722413     -18.911468      35.367919      1.3740002    
    626000   95.004949     -23.811071      4.8998611     -18.91121       46.557079      1.3740002    
    627000   95.318158     -23.827145      4.9160147     -18.91113       65.09464       1.3740002    
    628000   96.42956      -23.885029      4.9733351     -18.911694      62.750835      1.3740002    
    629000   94.828847     -23.801902      4.8907786     -18.911123      138.12058      1.3740002    
    630000   96.082184     -23.866399      4.9554192     -18.91098       66.756989      1.3740002    
    631000   93.153538     -23.715828      4.8043749     -18.911453      146.10784      1.3740002    
    632000   91.854283     -23.649087      4.7373661     -18.911721      143.17783      1.3740002    
    633000   93.445866     -23.730715      4.8194516     -18.911263      121.19826      1.3740002    
    634000   96.423525     -23.884615      4.9730238     -18.911591      26.734728      1.3740002    
    635000   92.712263     -23.69354       4.7816162     -18.911924      122.59748      1.3740002    
    636000   95.802548     -23.852564      4.9409971     -18.911567      47.027448      1.3740002    
    637000   93.941576     -23.756808      4.8450178     -18.911791      162.24421      1.3740002    
    638000   94.545911     -23.788045      4.8761863     -18.911859      119.4108       1.3740002    
    639000   90.462583     -23.577302      4.6655894     -18.911713      188.97735      1.3740002    
    640000   95.708635     -23.847092      4.9361535     -18.910938      109.77106      1.3740002    
    641000   92.766274     -23.695861      4.7844018     -18.911459      121.23918      1.3740002    
    642000   94.270752     -23.774237      4.861995      -18.912242      100.96711      1.3740002    
    643000   92.342481     -23.674315      4.7625448     -18.911771      169.5355       1.3740002    
    644000   94.399475     -23.779762      4.8686338     -18.911128      141.15735      1.3740002    
    645000   92.379282     -23.675734      4.7644428     -18.911291      181.53081      1.3740002    
    646000   95.671359     -23.845374      4.934231      -18.911143      96.095936      1.3740002    
    647000   95.243458     -23.823425      4.9121621     -18.911263      51.8131        1.3740002    
    648000   95.267006     -23.824917      4.9133766     -18.91154       65.588104      1.3740002    
    649000   92.655414     -23.690175      4.7786842     -18.911491      167.06545      1.3740002    
    650000   95.221337     -23.822251      4.9110212     -18.91123       97.60188       1.3740002    
    651000   95.250531     -23.823845      4.9125269     -18.911318      68.733604      1.3740002    
    652000   97.670767     -23.949194      5.0373501     -18.911844      26.23275       1.3740002    
    653000   98.872486     -24.011435      5.0993285     -18.912106      25.710244      1.3740002    
    654000   96.130029     -23.869301      4.9578868     -18.911414      61.860541      1.3740002    
    655000   96.260775     -23.876527      4.96463       -18.911897      49.745573      1.3740002    
    656000   94.53291      -23.787571      4.8755157     -18.912056      92.955004      1.3740002    
    657000   93.831397     -23.750457      4.8393353     -18.911121      173.31096      1.3740002    
    658000   93.510953     -23.73488       4.8228085     -18.912071      187.61592      1.3740002    
    659000   94.29281      -23.774855      4.8631326     -18.911723      140.04617      1.3740002    
    660000   96.842835     -23.906612      4.9946497     -18.911963      59.115282      1.3740002    
    661000   96.142006     -23.870121      4.9585045     -18.911616      89.164405      1.3740002    
    662000   90.081653     -23.557091      4.6459431     -18.911148      209.44476      1.3740002    
    663000   90.548349     -23.581248      4.6700128     -18.911235      181.49614      1.3740002    
    664000   94.791982     -23.800611      4.8888773     -18.911734      135.76878      1.3740002    
    665000   96.57022      -23.892537      4.9805896     -18.911948      64.942884      1.3740002    
    666000   96.313648     -23.878758      4.9673569     -18.911401      57.13766       1.3740002    
    667000   92.069233     -23.659747      4.7484521     -18.911295      189.30641      1.3740002    
    668000   98.350662     -23.983964      5.0724155     -18.911549      30.539078      1.3740002    
    669000   94.766851     -23.798979      4.8875812     -18.911398      107.22129      1.3740002    
    670000   90.954469     -23.602749      4.6909584     -18.911791      147.14944      1.3740002    
    671000   97.728038     -23.951423      5.0403038     -18.911119      55.795015      1.3740002    
    672000   92.301882     -23.672215      4.7604509     -18.911764      132.86886      1.3740002    
    673000   95.994534     -23.862355      4.9508987     -18.911456      80.080393      1.3740002    
    674000   92.647227     -23.689717      4.778262      -18.911455      137.58776      1.3740002    
    675000   95.787378     -23.850894      4.9402146     -18.91068       88.99179       1.3740002    
    676000   90.731465     -23.590706      4.6794569     -18.911249      145.4554       1.3740002    
    677000   95.701623     -23.846879      4.9357918     -18.911087      60.262865      1.3740002    
    678000   94.362805     -23.778359      4.8667426     -18.911617      107.91009      1.3740002    
    679000   95.659368     -23.845345      4.9336126     -18.911732      95.542969      1.3740002    
    680000   97.196177     -23.924385      5.0128732     -18.911512      68.827853      1.3740002    
    681000   93.714701     -23.744601      4.8333167     -18.911284      147.68923      1.3740002    
    682000   96.895632     -23.908794      4.9973726     -18.911421      24.470023      1.3740002    
    683000   90.361309     -23.57247       4.6603662     -18.912104      198.4076       1.3740002    
    684000   97.986373     -23.965329      5.0536274     -18.911701     -2.5785245      1.3740002    
    685000   93.747564     -23.745959      4.8350116     -18.910947      134.43896      1.3740002    
    686000   92.569998     -23.685583      4.7742789     -18.911304      188.89528      1.3740002    
    687000   94.508942     -23.786201      4.8742796     -18.911921      61.1066        1.3740002    
    688000   95.104076     -23.817509      4.9049735     -18.912536      44.435245      1.3740002    
    689000   93.396005     -23.72831       4.8168801     -18.91143       117.19266      1.3740002    
    690000   91.519044     -23.631734      4.7200762     -18.911658      157.51918      1.3740002    
    691000   91.47802      -23.629484      4.7179604     -18.911523      166.15799      1.3740002    
    692000   92.693728     -23.692305      4.7806603     -18.911644      129.09988      1.3740002    
    693000   90.757266     -23.591972      4.6807876     -18.911185      180.61066      1.3740002    
    694000   93.775571     -23.748576      4.8364561     -18.91212       131.82059      1.3740002    
    695000   92.58588      -23.686399      4.775098      -18.911301      128.06429      1.3740002    
    696000   91.873598     -23.650176      4.7383622     -18.911814      147.94609      1.3740002    
    697000   96.350269     -23.880946      4.9692456     -18.911701      22.128536      1.3740002    
    698000   90.964043     -23.60281       4.6914522     -18.911358      170.04708      1.3740002    
    699000   92.154549     -23.664345      4.7528522     -18.911492      159.33715      1.3740002    
    700000   94.787347     -23.800296      4.8886382     -18.911658      109.52156      1.3740002    
    701000   95.508532     -23.83763       4.9258332     -18.911797      63.210899      1.3740002    
    702000   96.383811     -23.882674      4.9709755     -18.911698      56.811146      1.3740002    
    703000   94.63113      -23.791784      4.8805814     -18.911203      106.9051       1.3740002    
    704000   95.244105     -23.824209      4.9121955     -18.912014      26.212901      1.3740002    
    705000   97.326089     -23.930774      5.0195734     -18.911201      9.0016995      1.3740002    
    706000   95.465205     -23.835468      4.9235987     -18.91187       103.58207      1.3740002    
    707000   96.841804     -23.905912      4.9945965     -18.911315      13.785198      1.3740002    
    708000   97.188069     -23.92398       5.012455      -18.911525      75.398253      1.3740002    
    709000   98.607298     -23.99696       5.0856515     -18.911308     -9.6168923      1.3740002    
    710000   96.263751     -23.876461      4.9647835     -18.911678      38.025389      1.3740002    
    711000   95.704501     -23.847572      4.9359403     -18.911632      55.865626      1.3740002    
    712000   101.23722     -24.133025      5.2212889     -18.911736     -71.632236      1.3740002    
    713000   93.223715     -23.719943      4.8079942     -18.911949      114.8564       1.3740002    
    714000   92.989682     -23.707822      4.7959241     -18.911898      152.34122      1.3740002    
    715000   94.719784     -23.796885      4.8851537     -18.911732      50.911295      1.3740002    
    716000   94.193218     -23.769284      4.8579962     -18.911288      116.21458      1.3740002    
    717000   94.42423      -23.781122      4.8699106     -18.911212      102.19473      1.3740002    
    718000   92.236913     -23.668423      4.7571002     -18.911323      136.1431       1.3740002    
    719000   99.535424     -24.044816      5.1335194     -18.911296     -20.028169      1.3740002    
    720000   95.948112     -23.859914      4.9485045     -18.91141       103.54408      1.3740002    
    721000   95.622605     -23.842918      4.9317165     -18.911202      128.57546      1.3740002    
    722000   91.735888     -23.643262      4.7312599     -18.912002      126.72004      1.3740002    
    723000   95.34318      -23.829045      4.9173052     -18.91174       38.3283        1.3740002    
    724000   93.153504     -23.716116      4.8043731     -18.911743      100.62315      1.3740002    
    725000   96.227182     -23.874166      4.9628975     -18.911268      41.734353      1.3740002    
    726000   97.614503     -23.946087      5.0344483     -18.911639      51.467514      1.3740002    
    727000   90.185779     -23.562214      4.6513133     -18.9109        204.13069      1.3740002    
    728000   94.020534     -23.760712      4.84909       -18.911622      92.381464      1.3740002    
    729000   91.221715     -23.615856      4.7047415     -18.911115      198.80943      1.3740002    
    730000   92.929021     -23.70399       4.7927955     -18.911195      137.44682      1.3740002    
    731000   96.499309     -23.888319      4.9769324     -18.911387      51.763063      1.3740002    
    732000   93.727055     -23.745335      4.8339539     -18.911381      167.73136      1.3740002    
    733000   90.674649     -23.588565      4.6765267     -18.912038      161.09729      1.3740002    
    734000   93.053767     -23.711129      4.7992292     -18.9119        121.96721      1.3740002    
    735000   95.320181     -23.828187      4.9161191     -18.912068      107.93754      1.3740002    
    736000   92.774221     -23.696587      4.7848117     -18.911776      164.45416      1.3740002    
    737000   91.865365     -23.649945      4.7379376     -18.912007      149.70424      1.3740002    
    738000   90.263648     -23.566844      4.6553294     -18.911515      185.13706      1.3740002    
    739000   95.695436     -23.846433      4.9354727     -18.910961      77.980665      1.3740002    
    740000   94.585158     -23.789903      4.8782104     -18.911693      82.845674      1.3740002    
    741000   98.54802      -23.994187      5.0825942     -18.911592      12.840507      1.3740002    
    742000   94.532092     -23.787169      4.8754736     -18.911695      131.02772      1.3740002    
    743000   97.591651     -23.944637      5.0332697     -18.911368      54.131073      1.3740002    
    744000   92.387331     -23.676506      4.7648579     -18.911648      120.91276      1.3740002    
    745000   90.750512     -23.591776      4.6804393     -18.911337      128.51293      1.3740002    
    746000   92.038495     -23.6578        4.7468668     -18.910933      153.61221      1.3740002    
    747000   93.92286      -23.755559      4.8440525     -18.911506      149.9624       1.3740002    
    748000   91.298114     -23.620008      4.7086818     -18.911326      195.03045      1.3740002    
    749000   94.480358     -23.784046      4.8728054     -18.91124       121.07132      1.3740002    
    750000   93.191771     -23.718157      4.8063468     -18.911811      140.12369      1.3740002    
    751000   93.454857     -23.730732      4.8199153     -18.910817      133.59233      1.3740002    
    752000   92.902508     -23.703019      4.791428      -18.911591      104.49821      1.3740002    
    753000   91.116921     -23.611089      4.6993368     -18.911752      168.59507      1.3740002    
    754000   93.948199     -23.756722      4.8453594     -18.911363      142.37218      1.3740002    
    755000   95.116378     -23.817117      4.9056079     -18.911509      63.513064      1.3740002    
    756000   95.004217     -23.811318      4.8998233     -18.911495      62.898775      1.3740002    
    757000   92.423474     -23.67819       4.766722      -18.911468      147.15905      1.3740002    
    758000   95.357841     -23.829792      4.9180614     -18.911731      81.552844      1.3740002    
    759000   92.412971     -23.677826      4.7661803     -18.911646      150.94828      1.3740002    
    760000   95.448887     -23.834795      4.922757      -18.912038      57.865735      1.3740002    
    761000   95.93948      -23.859382      4.9480593     -18.911323      90.904539      1.3740002    
    762000   95.667995     -23.845561      4.9340575     -18.911503      47.143047      1.3740002    
    763000   96.009413     -23.863282      4.951666      -18.911616      75.178132      1.3740002    
    764000   94.227634     -23.77159       4.8597712     -18.911819      83.204913      1.3740002    
    765000   93.224867     -23.718962      4.8080537     -18.910908      147.00961      1.3740002    
    766000   94.202657     -23.770251      4.858483      -18.911768      78.093989      1.3740002    
[...]
   4816000   89.627599     -23.533796      4.6225253     -18.91127       260.31872      1.3740002    
   4817000   89.842424     -23.544477      4.6336048     -18.910872      241.91917      1.3740002    
   4818000   88.141099     -23.456978      4.5458594     -18.911119      233.93552      1.3740002    
   4819000   95.976623     -23.861239      4.949975      -18.911264      72.438607      1.3740002    
   4820000   94.238421     -23.771545      4.8603275     -18.911218      73.686746      1.3740002    
   4821000   95.428203     -23.832886      4.9216903     -18.911196      71.322301      1.3740002    
   4822000   91.549457     -23.632591      4.7216447     -18.910946      141.96294      1.3740002    
   4823000   96.197525     -23.872807      4.9613679     -18.911439      95.399242      1.3740002    
   4824000   94.42368      -23.781316      4.8698822     -18.911434      106.39274      1.3740002    
   4825000   92.318709     -23.672847      4.7613188     -18.911528      147.18208      1.3740002    
   4826000   89.219569     -23.512922      4.6014812     -18.911441      207.6821       1.3740002    
   4827000   96.209181     -23.873288      4.961969      -18.911319      20.363862      1.3740002    
   4828000   92.615628     -23.687825      4.7766323     -18.911193      219.4744       1.3740002    
   4829000   92.570573     -23.685569      4.7743086     -18.911261      148.09393      1.3740002    
   4830000   92.612672     -23.688065      4.7764798     -18.911585      138.53756      1.3740002    
   4831000   91.384965     -23.624734      4.7131611     -18.911573      179.97386      1.3740002    
   4832000   94.933333     -23.807889      4.8961675     -18.911722      90.023935      1.3740002    
   4833000   93.482043     -23.733185      4.8213174     -18.911868      141.76494      1.3740002    
   4834000   97.157091     -23.922606      5.0108574     -18.911748      86.507183      1.3740002    
   4835000   96.286741     -23.877766      4.9659692     -18.911797      104.52315      1.3740002    
   4836000   96.594038     -23.89337       4.981818      -18.911552      135.3075       1.3740002    
   4837000   95.218339     -23.822137      4.9108666     -18.911271      44.22162       1.3740002    
   4838000   97.166534     -23.922874      5.0113444     -18.911529      30.674464      1.3740002    
   4839000   92.535299     -23.684061      4.7724894     -18.911571      172.48978      1.3740002    
   4840000   93.458672     -23.731393      4.8201121     -18.911281      98.479989      1.3740002    
   4841000   94.438588     -23.782024      4.8706511     -18.911372      103.61135      1.3740002    
   4842000   91.72399      -23.642416      4.7306463     -18.911769      156.66006      1.3740002    
   4843000   90.471997     -23.577638      4.6660749     -18.911564      199.29855      1.3740002    
   4844000   93.782448     -23.74889       4.8368108     -18.912079      163.87852      1.3740002    
   4845000   93.325347     -23.724016      4.8132359     -18.91078       182.09341      1.3740002    
   4846000   91.521136     -23.632012      4.7201841     -18.911828      129.48008      1.3740002    
   4847000   88.921911     -23.497845      4.5861296     -18.911716      234.28625      1.3740002    
   4848000   91.301668     -23.620056      4.7088651     -18.911191      168.77317      1.3740002    
   4849000   97.154544     -23.922306      5.0107259     -18.91158       45.485481      1.3740002    
   4850000   99.568612     -24.046988      5.1352311     -18.911757      15.347788      1.3740002    
   4851000   95.445533     -23.834414      4.9225841     -18.91183       80.927206      1.3740002    
   4852000   91.997437     -23.655648      4.7447492     -18.910899      171.13845      1.3740002    
   4853000   92.069361     -23.659413      4.7484587     -18.910954      187.91683      1.3740002    
   4854000   92.514299     -23.682247      4.7714063     -18.910841      115.73178      1.3740002    
   4855000   96.137842     -23.870167      4.9582898     -18.911877      23.17949       1.3740002    
   4856000   93.255432     -23.721218      4.8096301     -18.911588      127.81285      1.3740002    
   4857000   92.27733      -23.670658      4.7591846     -18.911474      98.114562      1.3740002    
   4858000   99.417135     -24.03884       5.1274187     -18.911421     -10.477292      1.3740002    
   4859000   92.862731     -23.700807      4.7893766     -18.91143       125.55584      1.3740002    
   4860000   91.89331      -23.650692      4.7393789     -18.911313      181.76331      1.3740002    
   4861000   93.10398      -23.713835      4.8018189     -18.912016      126.98971      1.3740002    
   4862000   91.897873     -23.651164      4.7396142     -18.91155       139.63465      1.3740002    
   4863000   93.311706     -23.723867      4.8125324     -18.911335      143.81977      1.3740002    
   4864000   93.955173     -23.757         4.8457191     -18.911281      107.12453      1.3740002    
   4865000   93.809679     -23.749859      4.8382152     -18.911644      112.71638      1.3740002    
   4866000   90.449069     -23.576394      4.6648924     -18.911501      178.88638      1.3740002    
   4867000   91.650197     -23.638601      4.7268404     -18.911761      123.49413      1.3740002    
   4868000   91.280937     -23.619664      4.7077959     -18.911868      209.89225      1.3740002    
   4869000   94.72203      -23.797091      4.8852695     -18.911821      73.592151      1.3740002    
   4870000   93.54083      -23.735562      4.8243494     -18.911213      128.21464      1.3740002    
   4871000   92.060286     -23.659731      4.7479906     -18.91174       179.6044       1.3740002    
   4872000   96.228742     -23.8747        4.9629779     -18.911722      95.366425      1.3740002    
   4873000   95.46299      -23.835168      4.9234844     -18.911683      54.319346      1.3740002    
   4874000   90.868152     -23.598136      4.6865066     -18.911629      119.36055      1.3740002    
   4875000   94.83933      -23.803215      4.8913193     -18.911896      124.08232      1.3740002    
   4876000   98.052393     -23.968905      5.0570324     -18.911873      10.338191      1.3740002    
   4877000   93.79716      -23.74899       4.8375695     -18.911421      191.8927       1.3740002    
   4878000   96.134588     -23.869545      4.9581219     -18.911423      90.555335      1.3740002    
   4879000   95.445286     -23.834031      4.9225713     -18.911459      64.558772      1.3740002    
   4880000   91.654253     -23.638806      4.7270496     -18.911757      142.76438      1.3740002    
   4881000   90.965991     -23.603582      4.6915526     -18.912029      193.66932      1.3740002    
   4882000   95.433296     -23.833303      4.921953      -18.91135       82.748719      1.3740002    
   4883000   92.124173     -23.662781      4.7512856     -18.911496      167.73886      1.3740002    
   4884000   91.880407     -23.649464      4.7387134     -18.910751      210.37568      1.3740002    
   4885000   99.544337     -24.045638      5.1339791     -18.911659     -8.3532346      1.3740002    
   4886000   91.171002     -23.61377       4.702126      -18.911644      135.54577      1.3740002    
   4887000   95.276921     -23.824757      4.9138879     -18.910869      84.124226      1.3740002    
   4888000   93.401647     -23.727707      4.817171      -18.910536      96.699694      1.3740002    
   4889000   91.170342     -23.613383      4.702092      -18.911291      151.2243       1.3740002    
   4890000   94.315074     -23.775867      4.8642809     -18.911587      121.21977      1.3740002    
   4891000   92.195183     -23.666582      4.7549479     -18.911634      117.9531       1.3740002    
   4892000   93.474095     -23.731988      4.8209075     -18.911081      149.74413      1.3740002    
   4893000   98.250879     -23.978505      5.0672692     -18.911236      4.3130172      1.3740002    
   4894000   96.378328     -23.88213       4.9706928     -18.911437      96.867519      1.3740002    
   4895000   97.359617     -23.9325        5.0213026     -18.911197      77.220928      1.3740002    
   4896000   88.620279     -23.482178      4.570573      -18.911605      237.56713      1.3740002    
   4897000   92.312221     -23.673123      4.7609841     -18.912139      144.44369      1.3740002    
   4898000   95.951642     -23.859953      4.9486865     -18.911267      67.813197      1.3740002    
   4899000   94.404482     -23.781082      4.8688921     -18.91219       72.377139      1.3740002    
   4900000   98.351756     -23.984018      5.0724719     -18.911546     -9.7366413      1.3740002    
   4901000   95.998582     -23.86314       4.9511075     -18.912033      45.767397      1.3740002    
   4902000   93.063982     -23.711672      4.7997561     -18.911915      107.34107      1.3740002    
   4903000   95.133452     -23.817894      4.9064886     -18.911405      98.115161      1.3740002    
   4904000   91.496528     -23.629931      4.7189149     -18.911016      197.81894      1.3740002    
   4905000   94.684047     -23.794727      4.8833106     -18.911416      63.270624      1.3740002    
   4906000   92.683529     -23.691795      4.7801343     -18.911661      137.16594      1.3740002    
   4907000   96.691609     -23.898482      4.9868502     -18.911631      92.252919      1.3740002    
   4908000   93.379548     -23.72753       4.8160313     -18.911499      173.68685      1.3740002    
   4909000   96.460807     -23.886326      4.9749466     -18.911379      75.800726      1.3740002    
   4910000   90.847646     -23.597441      4.685449      -18.911992      206.29759      1.3740002    
   4911000   94.340163     -23.777067      4.8655748     -18.911492      133.36828      1.3740002    
   4912000   94.332218     -23.776813      4.8651651     -18.911648      65.121913      1.3740002    
   4913000   93.485656     -23.733504      4.8215038     -18.912         119.67634      1.3740002    
   4914000   91.674188     -23.639764      4.7280777     -18.911686      177.63477      1.3740002    
   4915000   93.945541     -23.756944      4.8452223     -18.911722      148.66171      1.3740002    
   4916000   89.354483     -23.519863      4.6084394     -18.911424      262.5088       1.3740002    
   4917000   93.010269     -23.708383      4.7969858     -18.911397      133.38149      1.3740002    
   4918000   92.061859     -23.659236      4.7480717     -18.911164      175.85012      1.3740002    
   4919000   93.771664     -23.747987      4.8362546     -18.911733      128.27926      1.3740002    
   4920000   94.851797     -23.803677      4.8919622     -18.911715      128.81767      1.3740002    
   4921000   92.848675     -23.699929      4.7886517     -18.911277      176.6921       1.3740002    
   4922000   94.795898     -23.800836      4.8890793     -18.911756      121.54994      1.3740002    
   4923000   95.020021     -23.812533      4.9006384     -18.911894      71.841001      1.3740002    
   4924000   96.985261     -23.913861      5.0019952     -18.911866      88.767567      1.3740002    
   4925000   94.109814     -23.76527       4.8536946     -18.911575      113.22337      1.3740002    
   4926000   93.356777     -23.726587      4.8148569     -18.91173       113.84374      1.3740002    
   4927000   94.954032     -23.809059      4.897235      -18.911824      124.93744      1.3740002    
   4928000   91.330215     -23.622153      4.7103374     -18.911815      136.50176      1.3740002    
   4929000   92.222832     -23.667907      4.7563739     -18.911533      127.81164      1.3740002    
   4930000   96.021198     -23.86428       4.9522739     -18.912006      43.529986      1.3740002    
   4931000   94.656418     -23.793294      4.8818856     -18.911408      50.636972      1.3740002    
   4932000   92.869406     -23.70155       4.7897208     -18.911829      136.87119      1.3740002    
   4933000   91.597682     -23.635648      4.7241319     -18.911516      154.02918      1.3740002    
   4934000   96.387882     -23.882894      4.9711856     -18.911708      95.730978      1.3740002    
   4935000   93.997775     -23.759891      4.8479163     -18.911975      107.38765      1.3740002    
   4936000   95.784826     -23.851934      4.9400831     -18.911851      76.234531      1.3740002    
   4937000   98.494718     -23.991694      5.0798452     -18.911849      18.28223       1.3740002    
   4938000   93.204544     -23.718754      4.8070055     -18.911749      125.11123      1.3740002    
   4939000   92.209404     -23.667208      4.7556814     -18.911527      147.87269      1.3740002    
   4940000   92.263172     -23.670114      4.7584544     -18.91166       200.01302      1.3740002    
   4941000   95.868054     -23.85543       4.9443755     -18.911055      29.766395      1.3740002    
   4942000   91.793535     -23.645891      4.734233      -18.911658      184.11617      1.3740002    
   4943000   94.812378     -23.801019      4.8899292     -18.91109       184.3707       1.3740002    
   4944000   93.325132     -23.724521      4.8132248     -18.911296      175.607        1.3740002    
   4945000   89.739566     -23.540327      4.6283        -18.912027      200.62472      1.3740002    
   4946000   95.780176     -23.851442      4.9398432     -18.911598      85.872066      1.3740002    
   4947000   95.564416     -23.839995      4.9287154     -18.911279      14.586963      1.3740002    
   4948000   92.217682     -23.667281      4.7561083     -18.911173      192.46394      1.3740002    
   4949000   94.159776     -23.76769       4.8562714     -18.911418      167.64292      1.3740002    
   4950000   92.758283     -23.695569      4.7839897     -18.91158       143.2568       1.3740002    
   4951000   90.781711     -23.593275      4.6820484     -18.911227      198.57585      1.3740002    
   4952000   93.879862     -23.753627      4.8418349     -18.911792      77.600956      1.3740002    
   4953000   92.964592     -23.705948      4.79463       -18.911318      137.19515      1.3740002    
   4954000   98.495439     -23.990254      5.0798824     -18.910371      30.757131      1.3740002    
   4955000   94.546397     -23.787704      4.8762113     -18.911493      127.97065      1.3740002    
   4956000   94.153552     -23.767932      4.8559504     -18.911982      130.36941      1.3740002    
   4957000   95.414939     -23.832485      4.9210062     -18.911479      103.88163      1.3740002    
   4958000   96.469897     -23.88677       4.9754155     -18.911354      111.32146      1.3740002    
   4959000   95.225293     -23.82283       4.9112252     -18.911605      100.17591      1.3740002    
   4960000   93.885569     -23.753435      4.8421292     -18.911306      89.536243      1.3740002    
   4961000   93.307198     -23.724048      4.8122999     -18.911748      141.18867      1.3740002    
   4962000   94.315969     -23.776073      4.864327      -18.911746      103.93422      1.3740002    
   4963000   96.686839     -23.898601      4.9866042     -18.911997      71.55463       1.3740002    
   4964000   95.308195     -23.827421      4.9155009     -18.91192       81.308788      1.3740002    
   4965000   94.450321     -23.782577      4.8712562     -18.911321      160.35574      1.3740002    
   4966000   92.98607      -23.706841      4.7957378     -18.911103      107.90599      1.3740002    
   4967000   92.95061      -23.705633      4.7939089     -18.911724      125.75985      1.3740002    
   4968000   92.706741     -23.693485      4.7813314     -18.912153      146.75751      1.3740002    
   4969000   97.363237     -23.93327       5.0214893     -18.911781      0.55216593     1.3740002    
   4970000   90.958504     -23.602543      4.6911664     -18.911376      158.38044      1.3740002    
   4971000   90.611037     -23.584093      4.6732459     -18.910847      189.0871       1.3740002    
   4972000   93.180397     -23.717453      4.8057602     -18.911693      136.03432      1.3740002    
   4973000   92.819353     -23.699138      4.7871394     -18.911999      145.58787      1.3740002    
   4974000   92.845541     -23.700034      4.78849       -18.911544      134.29033      1.3740002    
   4975000   93.114993     -23.713542      4.802387      -18.911155      121.25783      1.3740002    
   4976000   92.171611     -23.665136      4.7537322     -18.911403      176.84767      1.3740002    
   4977000   93.853353     -23.751296      4.8404677     -18.910828      94.26428       1.3740002    
   4978000   90.048        -23.555247      4.6442074     -18.911039      242.95677      1.3740002    
   4979000   93.826902     -23.751102      4.8391035     -18.911999      136.33454      1.3740002    
   4980000   95.940853     -23.859921      4.9481301     -18.911791      71.192897      1.3740002    
   4981000   89.044273     -23.504282      4.5924404     -18.911841      259.00481      1.3740002    
   4982000   93.369278     -23.727111      4.8155017     -18.911609      171.62261      1.3740002    
   4983000   97.22016      -23.925653      5.0141101     -18.911543      76.238036      1.3740002    
   4984000   93.695197     -23.743805      4.8323108     -18.911494      148.35417      1.3740002    
   4985000   93.853864     -23.752076      4.840494      -18.911581      120.71484      1.3740002    
   4986000   90.81344      -23.595152      4.6836848     -18.911467      164.60475      1.3740002    
   4987000   90.749198     -23.5917        4.6803715     -18.911328      193.81296      1.3740002    
   4988000   93.566039     -23.736915      4.8256496     -18.911266      140.59802      1.3740002    
   4989000   93.946333     -23.756968      4.8452631     -18.911704      132.07146      1.3740002    
   4990000   91.106245     -23.61059       4.6987862     -18.911804      212.31163      1.3740002    
   4991000   93.470279     -23.732528      4.8207108     -18.911818      129.87006      1.3740002    
   4992000   95.68039      -23.846225      4.9346968     -18.911528      84.535194      1.3740002    
   4993000   94.297632     -23.774878      4.8633813     -18.911496      136.73638      1.3740002    
   4994000   91.696238     -23.640191      4.7292149     -18.910976      191.57701      1.3740002    
   4995000   96.496695     -23.887583      4.9767975     -18.910785      75.006321      1.3740002    
   4996000   98.077766     -23.969917      5.058341      -18.911576      6.4738663      1.3740002    
   4997000   92.810918     -23.69847       4.7867044     -18.911766      165.32485      1.3740002    
   4998000   95.956044     -23.859835      4.9489136     -18.910921      117.64934      1.3740002    
   4999000   93.714548     -23.744216      4.8333089     -18.910907      119.73177      1.3740002    
   5000000   93.584696     -23.738093      4.8266118     -18.911482      112.44519      1.3740002    
Loop time of 26625.1 on 1 procs for 5000000 steps with 400 atoms

Performance: 16.225 ns/day, 1.479 hours/ns, 187.793 timesteps/s
99.7% CPU use with 1 MPI tasks x 1 OpenMP threads

MPI task timing breakdown:
Section |  min time  |  avg time  |  max time  |%varavg| %total
---------------------------------------------------------------
Pair    | 12662      | 12662      | 12662      |   0.0 | 47.56
Neigh   | 2008.2     | 2008.2     | 2008.2     |   0.0 |  7.54
Comm    | 361.7      | 361.7      | 361.7      |   0.0 |  1.36
Output  | 5.1588     | 5.1588     | 5.1588     |   0.0 |  0.02
Modify  | 11556      | 11556      | 11556      |   0.0 | 43.40
Other   |            | 32.09      |            |       |  0.12

Nlocal:            400 ave         400 max         400 min
Histogram: 1 0 0 0 0 0 0 0 0 0
Nghost:           3432 ave        3432 max        3432 min
Histogram: 1 0 0 0 0 0 0 0 0 0
Neighs:          59581 ave       59581 max       59581 min
Histogram: 1 0 0 0 0 0 0 0 0 0

Total # of neighbors = 59581
Ave neighs/atom = 148.9525
Neighbor list builds = 500000
Dangerous builds not checked
Total wall time: 7:23:45
