 # LAMMPS timestep 95587
 
         108  atoms
           1  atom types
 
      0.000000000000      17.340450000000  xlo xhi
      0.000000000000      17.340450000000  ylo yhi
      0.000000000000      17.340450000000  zlo zhi
 
Masses
 
1   39.94800200             # Ar
 
Atoms # atomic
 
         1    1        2.298300000000       2.648900000000       9.242410000000
         2    1        1.349310000000       5.400140000000       6.993480000000
         3    1        0.316986000000      11.206700000000      13.893600000000
         4    1        7.938840000000      16.217400000000      14.998000000000
         5    1        9.899390000000      13.851100000000       0.762915000000
         6    1       14.732500000000      17.037600000000       6.968520000000
         7    1        2.142990000000      10.982600000000       4.813920000000
         8    1        3.820100000000      14.036400000000       2.442930000000
         9    1        0.577089000000      14.888800000000       6.152480000000
        10    1       16.267800000000       3.472000000000       5.094800000000
        11    1        4.508370000000       3.339130000000      12.680500000000
        12    1        6.219180000000      12.942800000000      17.033200000000
        13    1       10.620300000000      16.249200000000       3.917690000000
        14    1        4.787370000000       9.974250000000      14.526900000000
        15    1        4.560060000000       4.063330000000       6.558760000000
        16    1       17.122400000000      16.055100000000      17.120300000000
        17    1        3.866730000000      11.904000000000       8.493260000000
        18    1       11.294200000000      10.181600000000      15.330900000000
        19    1        9.608080000000       0.687358000000       9.492030000000
        20    1        6.032010000000       3.687120000000       2.800240000000
        21    1       17.066200000000       8.100140000000       5.100660000000
        22    1       11.282500000000      12.789500000000       4.324790000000
        23    1       16.624400000000      11.591900000000       7.598960000000
        24    1        5.603710000000       7.299400000000       7.573890000000
        25    1        1.318760000000      12.827600000000      10.372100000000
        26    1       14.463300000000       1.287670000000      13.012300000000
        27    1       16.014300000000       6.787530000000      13.395500000000
        28    1       12.888300000000      17.130000000000      10.369800000000
        29    1        5.476000000000       0.452313000000       4.936490000000
        30    1       11.014400000000       0.553618000000      13.523700000000
        31    1        8.201830000000       6.221800000000       5.671260000000
        32    1        4.209840000000      16.088900000000      16.467500000000
        33    1       11.297400000000      14.042300000000      14.979900000000
        34    1        8.157190000000      12.171800000000       7.382710000000
        35    1        8.185810000000      16.045700000000       6.915170000000
        36    1        9.494060000000       9.857260000000       2.128830000000
        37    1       11.906300000000      14.904300000000       7.575350000000
        38    1       10.076600000000       5.354750000000      12.739100000000
        39    1       14.574600000000      13.873800000000       8.999010000000
        40    1       10.333700000000       3.070280000000       3.544440000000
        41    1       14.126300000000       3.444300000000       8.180940000000
        42    1        6.633080000000      10.838900000000      10.515600000000
        43    1       15.896700000000      15.217300000000      12.767300000000
        44    1        3.605100000000      17.260700000000      12.435600000000
        45    1       11.626100000000       1.231250000000       6.268960000000
        46    1        3.180860000000       0.602113000000       1.924190000000
        47    1        5.029040000000      13.909600000000       5.832020000000
        48    1       14.986200000000       8.960060000000      15.733400000000
        49    1       16.842300000000       5.088460000000       9.953710000000
        50    1        2.032150000000       8.884220000000       7.778680000000
        51    1       17.010400000000       5.628810000000      16.447800000000
        52    1       16.940900000000      13.148300000000       2.391530000000
        53    1        6.540290000000       4.584420000000       9.692100000000
        54    1        9.366150000000       4.821760000000      16.156500000000
        55    1       12.239200000000       6.886130000000      15.057500000000
        56    1        6.966380000000      14.394000000000      10.975000000000
        57    1        0.135509000000      16.572400000000       3.199360000000
        58    1        3.861130000000       7.190540000000       3.955210000000
        59    1       16.739700000000       9.550710000000      10.518200000000
        60    1       11.454800000000       8.283010000000      11.769800000000
        61    1       14.405300000000       8.122130000000       8.140210000000
        62    1       11.935500000000       5.688970000000       5.635210000000
        63    1        4.305340000000      10.176800000000       1.011190000000
        64    1        8.060770000000       8.523150000000      15.232300000000
        65    1        8.450590000000       8.297640000000       9.463950000000
        66    1        7.107150000000       2.035720000000      17.156800000000
        67    1        7.347380000000      16.440900000000       2.121610000000
        68    1       13.153800000000       4.086830000000      11.763900000000
        69    1        2.780920000000       5.994860000000       0.639235000000
        70    1       14.514800000000       0.644256000000       3.862680000000
        71    1        0.627542000000       9.270960000000       0.883908000000
        72    1        3.278660000000      16.054500000000       8.789170000000
        73    1        6.071870000000      10.378300000000       4.713840000000
        74    1        2.191870000000       3.606130000000       3.593390000000
        75    1       13.703600000000       9.974990000000       4.635180000000
        76    1       17.233700000000       0.152903000000       9.936680000000
        77    1        0.455001000000       2.664250000000      12.659500000000
        78    1       12.865400000000      11.248500000000       7.720170000000
        79    1        6.783930000000       6.828980000000       1.440950000000
        80    1       14.701900000000      12.833300000000      15.926000000000
        81    1        5.732060000000      13.739900000000      13.924800000000
        82    1        8.113060000000       2.617900000000      13.233000000000
        83    1       10.115100000000       9.075060000000       5.602820000000
        84    1       10.685300000000       1.178690000000      17.316100000000
        85    1        1.303920000000       1.055580000000       6.460770000000
        86    1        3.575580000000       2.869290000000      16.341100000000
        87    1        3.402880000000       9.625500000000      11.316500000000
        88    1        2.526410000000       6.576550000000      13.987900000000
        89    1        2.332990000000      12.752100000000      16.889200000000
        90    1        5.799860000000       1.292820000000       9.474150000000
        91    1       13.393800000000      15.808500000000       0.829283000000
        92    1       10.754500000000       5.641460000000       9.150360000000
        93    1       14.338600000000       7.651120000000       1.766750000000
        94    1       12.585800000000      11.215400000000       1.218410000000
        95    1       14.128100000000       3.641340000000       1.748510000000
        96    1        5.894230000000       5.848940000000      15.505700000000
        97    1        8.216310000000       2.496000000000       6.939750000000
        98    1       11.050700000000      13.602900000000      10.872900000000
        99    1        7.762830000000      13.453500000000       3.892590000000
       100    1       14.683000000000      13.976800000000       4.840440000000
       101    1        1.759430000000      14.425900000000      13.813500000000
       102    1        6.367510000000       7.200740000000      12.050300000000
       103    1       17.120900000000       2.350690000000       0.577833000000
       104    1       10.736400000000       6.722850000000       1.749310000000
       105    1       13.804200000000       3.339390000000      15.660700000000
       106    1        9.120910000000      11.531600000000      13.137800000000
       107    1        3.070240000000       6.369780000000      10.223500000000
       108    1       14.011400000000      11.526900000000      12.393300000000
 
Velocities
 
         1    0.18149900E+01   0.96711900E+00   0.27039300E+01
         2   -0.74044200E+00   0.21529000E+01   0.90088500E+00
         3   -0.23201500E+01  -0.20645200E+01   0.97175900E+00
         4   -0.18660300E+01   0.19491900E+01   0.31915700E+00
         5    0.97715200E+00  -0.16427100E+01   0.46964900E+00
         6    0.13548500E+01   0.19728200E+01   0.13601800E+01
         7    0.14082200E+01  -0.10929700E+01  -0.36073700E+00
         8    0.12428900E+01   0.12313000E+01   0.29810200E+00
         9    0.17248800E+01   0.30391000E+01  -0.40429000E+00
        10    0.14398400E+01   0.44049600E+00   0.11830000E+01
        11    0.11610300E+01  -0.75289300E+00   0.70562300E+00
        12   -0.85980400E+00  -0.11032900E+01  -0.16270200E+01
        13   -0.35794000E+00   0.13010100E+01   0.21529300E+01
        14   -0.61986400E+00  -0.23156000E+00  -0.11319400E+01
        15    0.87081800E+00  -0.12434100E+00   0.21395500E+00
        16   -0.74563600E+00  -0.91198500E+00   0.27373400E+01
        17   -0.12164900E+01   0.40910100E-01  -0.16104400E+01
        18   -0.58957000E+00   0.17436600E+01  -0.15789100E+01
        19    0.35778200E+00  -0.15145200E+01   0.20859500E+00
        20    0.20311600E+01   0.18280200E+00  -0.47690400E+00
        21   -0.64750400E+00   0.11328900E+01  -0.94423700E+00
        22   -0.14809500E+01  -0.81597900E+00   0.28047500E+00
        23   -0.76735600E+00   0.29597300E-01  -0.19886200E+01
        24   -0.22583900E+00  -0.33993700E+00   0.14649000E+01
        25   -0.98492400E+00  -0.33223200E+01  -0.23337300E+01
        26   -0.18610800E+01   0.14483600E+01   0.18680400E+01
        27    0.44546100E-01  -0.30649200E+00   0.23004000E+01
        28    0.24966900E+01   0.62176700E+00  -0.22287500E+00
        29   -0.29276600E+00  -0.79118800E+00  -0.68358200E+00
        30   -0.15003500E+01   0.13362400E+01   0.43611500E+00
        31    0.15501300E+00   0.53191400E+00   0.55610800E+00
        32    0.92275800E-02   0.13773300E+01   0.15324300E+01
        33    0.11525900E+01  -0.15415200E+01  -0.18310900E+01
        34   -0.74469300E+00   0.66630500E-02  -0.81984900E+00
        35    0.78059000E+00  -0.11552400E+01  -0.15152500E+01
        36    0.33812800E+00  -0.20706900E+01   0.51272500E+00
        37    0.80025300E+00  -0.20884400E+01  -0.31558700E+01
        38    0.22812100E+01  -0.12236600E+01  -0.11650800E+00
        39    0.55689400E+00  -0.11821200E+01   0.33149700E-01
        40    0.56288000E+00   0.84804700E+00  -0.29592300E+01
        41   -0.41653500E+01  -0.34282900E+00   0.78759600E+00
        42   -0.26030600E+01   0.23280400E+01  -0.61069900E+00
        43    0.18190400E+01   0.98687800E+00  -0.90477600E+00
        44    0.21265200E-01  -0.71139200E+00   0.27203300E+01
        45   -0.12915600E+01   0.72877700E+00  -0.51646700E+00
        46    0.34090000E+01   0.13361600E+01   0.64376300E+00
        47    0.11339600E+01  -0.15429400E+01   0.61713000E+00
        48    0.97033400E+00   0.11445500E+01   0.18149600E+01
        49   -0.44393400E-01   0.23844100E+01  -0.35174200E+00
        50   -0.97582400E+00  -0.83264500E+00  -0.93843100E+00
        51    0.32348700E+00   0.90668700E+00   0.12524900E+01
        52   -0.28915200E+00  -0.35196100E+01   0.24676300E+00
        53   -0.18969300E+01   0.21430100E+01   0.40294100E+00
        54   -0.10336400E+01   0.50328900E+00   0.15855400E+01
        55   -0.16212600E+00  -0.49996400E+00  -0.59609400E+00
        56    0.22864200E+01   0.17390600E+01   0.27172700E+01
        57    0.17298700E+00   0.86034300E-01  -0.29247500E-01
        58    0.55406600E+00  -0.42891600E+00  -0.12381800E+01
        59   -0.12279500E+01   0.96031700E+00  -0.91661300E+00
        60    0.23751700E+01   0.24721500E+01   0.19197900E+01
        61   -0.44071100E+00  -0.21425200E+00   0.38014800E+01
        62   -0.19279900E+01  -0.93794300E+00  -0.42164500E+00
        63    0.29401300E+00  -0.32201600E+00  -0.56731600E+00
        64    0.19085800E+01  -0.67210300E+00   0.13064100E+01
        65    0.19484500E+01   0.13593500E+00  -0.80649700E+00
        66    0.65526200E-01  -0.15539800E+01   0.97481400E+00
        67    0.13187500E-02  -0.45093200E-01  -0.27786200E+01
        68   -0.24007200E+01   0.79888900E-01  -0.10474100E+01
        69    0.36555300E+00   0.54962200E+00   0.13701300E+01
        70    0.10366800E+01   0.37804700E+00   0.17581600E+01
        71   -0.91287500E+00   0.20494600E+00  -0.11193800E+01
        72   -0.77038400E+00  -0.28927000E+01  -0.67216800E+00
        73    0.19384400E-01   0.33022900E+00  -0.37286800E+00
        74   -0.20988000E+00  -0.25999400E+00  -0.22092700E+01
        75   -0.35963000E+00  -0.21867700E+01  -0.35643500E+00
        76   -0.63599700E+00   0.24943900E+00   0.14572700E+01
        77   -0.84755600E+00   0.10659200E+00  -0.22848600E+01
        78    0.13502600E+01   0.17540200E+01   0.33146300E+00
        79    0.23935200E+00   0.25714800E+00  -0.18121000E+01
        80    0.83953300E+00  -0.11829900E+00  -0.91051600E+00
        81    0.73604400E+00   0.33869800E+00  -0.28150600E+01
        82   -0.63972500E+00   0.26436600E+00   0.30420700E+00
        83   -0.56311600E+00  -0.10767700E+01   0.34076100E+00
        84    0.11984300E+01   0.12694000E+00  -0.27967900E+01
        85    0.11564100E+01   0.41458600E+00  -0.10127100E+01
        86    0.74747700E+00   0.78580100E+00  -0.22683500E+01
        87    0.60719700E+00  -0.13765700E+01  -0.65760000E+00
        88   -0.14950400E+01   0.22008200E+00   0.76241600E-01
        89   -0.61204500E+00  -0.13485400E+01  -0.11217000E+01
        90    0.57092600E+00   0.46465700E+00   0.34458600E+01
        91   -0.17440400E+01   0.14099100E-02   0.70174100E+00
        92    0.20009300E+01   0.89927400E+00  -0.63812900E+00
        93   -0.17607300E+00  -0.68436000E+00  -0.25282600E+00
        94    0.10238200E+01   0.96705700E+00  -0.15102300E+01
        95   -0.57217800E+00   0.21629600E+00  -0.22826000E+00
        96   -0.52054400E+00  -0.36288300E+01   0.27392300E+01
        97   -0.10049600E+01  -0.54149100E+00  -0.91482400E+00
        98    0.45928400E+00  -0.21080100E+01   0.44376400E+00
        99    0.32072000E+00   0.39111900E+00   0.28178400E+00
       100    0.10162800E+01   0.62907300E-01  -0.43965500E+01
       101   -0.19692100E+01  -0.15303700E+01   0.16973200E+01
       102    0.16885200E+00   0.37180800E-01  -0.17614200E+01
       103   -0.29337400E+00  -0.17886800E+01   0.23547600E+01
       104   -0.10242400E+01   0.20307800E+01   0.28960300E+01
       105   -0.23394800E+01   0.19588700E+01   0.13183400E+01
       106    0.19742800E+00   0.24893600E+01   0.33845700E+00
       107   -0.56876600E+00  -0.92204100E+00   0.19052000E+00
       108   -0.13599000E+01   0.57476100E+00  -0.44989900E+00
