LAMMPS (15 Sep 2022)
OMP_NUM_THREADS environment is not set. Defaulting to 1 thread. (src/comm.cpp:98)
  using 1 OpenMP thread(s) per MPI task
variable T equal 94.0

units metal
boundary p p p
atom_style atomic

read_data nve.lmp
Reading data file ...
  orthogonal box = (0 0 0) to (17.34045 17.34045 17.34045)
  1 by 1 by 1 MPI processor grid
  reading atoms ...
  108 atoms
  reading velocities ...
  108 velocities
  read_data CPU = 0.046 seconds

neighbor 0.1 bin
neigh_modify delay 10 check no

pair_style lj/cut 15.0
pair_coeff 1 1 0.0103 3.405 15.0

thermo 1000
thermo_style custom step temp pe ke etotal press density

# Calculate the kinetic energy
compute g2 all rdf 1000
fix 1 all nve
fix temp_1 all ave/time 1 10000 10000 c_thermo_temp file temp.dat
fix g2_1 all ave/time 1 5000000 5000000 c_g2[*] file rdf.dat mode vector

dump 1 all custom 1000 argon.dump id type x y z vx vy vz

run 5000000
Generated 0 of 0 mixed pair_coeff terms from geometric mixing rule
Neighbor list info ...
  update: every = 1 steps, delay = 10 steps, check = no
  max neighbors/atom: 2000, page size: 100000
  master list distance cutoff = 15.1
  ghost atom cutoff = 15.1
  binsize = 7.55, bins = 3 3 3
  2 neighbor lists, perpetual/occasional/extra = 1 1 0
  (1) pair lj/cut, perpetual
      attributes: half, newton on
      pair build: half/bin/atomonly/newton
      stencil: half/bin/3d
      bin: standard
  (2) compute rdf, occasional, copy from (1)
      attributes: half, newton on
      pair build: copy
      stencil: none
      bin: none
Per MPI rank memory allocation (min/avg/max) = 3.915 | 3.915 | 3.915 Mbytes
   Step          Temp          PotEng         KinEng         TotEng         Press         Density    
         0   94.000139     -6.4151571      1.3001005     -5.1150567      28.232408      1.3740002    
      1000   99.698931     -6.4939842      1.3789195     -5.1150647      41.67133       1.3740002    
      2000   89.475072     -6.3524334      1.237515      -5.1149183      230.30261      1.3740002    
      3000   95.849229     -6.4407717      1.3256749     -5.1150968      58.085732      1.3740002    
      4000   98.836662     -6.4820971      1.3669936     -5.1151035     -55.959481      1.3740002    
      5000   100.07546     -6.4993147      1.3841272     -5.1151875     -31.687568      1.3740002    
      6000   103.03899     -6.5400986      1.4251154     -5.1149832     -189.05421      1.3740002    
      7000   96.391183     -6.4484246      1.3331706     -5.115254       102.40413      1.3740002    
      8000   101.72565     -6.5221303      1.4069507     -5.1151795     -71.523581      1.3740002    
      9000   100.8355      -6.5099003      1.3946392     -5.1152611      22.595723      1.3740002    
     10000   100.50894     -6.5048758      1.3901226     -5.1147532     -85.909872      1.3740002    
     11000   104.29754     -6.55776        1.4425221     -5.1152379     -200.23368      1.3740002    
     12000   98.334748     -6.4751798      1.3600517     -5.115128      -24.745383      1.3740002    
     13000   91.425351     -6.3794831      1.264489      -5.1149941      133.28766      1.3740002    
     14000   101.65347     -6.5210653      1.4059525     -5.1151128     -154.82842      1.3740002    
     15000   95.767639     -6.4396984      1.3245465     -5.1151519      11.51919       1.3740002    
     16000   92.702491     -6.3974115      1.2821529     -5.1152586      142.05202      1.3740002    
     17000   85.963739     -6.3040913      1.1889503     -5.1151409      226.44297      1.3740002    
     18000   100.47017     -6.5046757      1.3895864     -5.1150894     -45.086605      1.3740002    
     19000   96.318733     -6.4469892      1.3321686     -5.1148207      29.63454       1.3740002    
     20000   93.022665     -6.4015527      1.2865812     -5.1149715      103.5689       1.3740002    
     21000   91.096501     -6.3750143      1.2599407     -5.1150736      234.81623      1.3740002    
     22000   97.398317     -6.4622984      1.3471001     -5.1151983      80.025238      1.3740002    
     23000   102.52406     -6.5329849      1.4179935     -5.1149915     -12.999038      1.3740002    
     24000   94.240941     -6.4183121      1.303431      -5.1148812      51.71344       1.3740002    
     25000   105.52245     -6.5745634      1.4594636     -5.1150998     -169.1171       1.3740002    
     26000   99.84063      -6.4958837      1.3808793     -5.1150043     -40.686776      1.3740002    
     27000   92.903371     -6.3998563      1.2849312     -5.1149251      121.61172      1.3740002    
     28000   93.345084     -6.4057052      1.2910405     -5.1146647      157.69693      1.3740002    
     29000   93.975294     -6.4151526      1.2997568     -5.1153958      67.4744        1.3740002    
     30000   95.657782     -6.4379482      1.3230271     -5.1149212      25.920645      1.3740002    
     31000   93.315307     -6.4055447      1.2906287     -5.114916       33.615523      1.3740002    
     32000   98.17427      -6.4729553      1.3578322     -5.1151232      20.041761      1.3740002    
     33000   86.561762     -6.3122542      1.1972215     -5.1150327      257.83396      1.3740002    
     34000   95.263789     -6.4326232      1.3175778     -5.1150454      96.300521      1.3740002    
     35000   96.24201      -6.4461975      1.3311074     -5.1150901      5.7707408      1.3740002    
     36000   97.987899     -6.4703625      1.3552545     -5.1151079      39.536082      1.3740002    
     37000   97.51955      -6.4638564      1.3487769     -5.1150796     -45.614014      1.3740002    
     38000   101.42543     -6.5180153      1.4027984     -5.1152169     -63.357446      1.3740002    
     39000   97.056458     -6.4575258      1.3423719     -5.1151539     -36.376317      1.3740002    
     40000   85.575247     -6.2986838      1.1835772     -5.1151067      256.88411      1.3740002    
     41000   94.649806     -6.4242411      1.3090859     -5.1151552      21.448342      1.3740002    
     42000   86.904415     -6.316851       1.2019607     -5.1148904      298.76341      1.3740002    
     43000   104.38709     -6.5589305      1.4437607     -5.1151698     -68.610315      1.3740002    
     44000   88.796847     -6.3431672      1.2281346     -5.1150327      154.53746      1.3740002    
     45000   107.20213     -6.5976185      1.482695      -5.1149234     -189.92933      1.3740002    
     46000   97.727841     -6.4665856      1.3516577     -5.1149279      31.056645      1.3740002    
     47000   87.882469     -6.3305955      1.215488      -5.1151075      281.63774      1.3740002    
     48000   92.02188      -6.3881425      1.2727395     -5.115403       156.27314      1.3740002    
     49000   96.571737     -6.4505557      1.3356678     -5.1148879     -19.026052      1.3740002    
     50000   95.381338     -6.434059       1.3192036     -5.1148554      71.015187      1.3740002    
     51000   95.288233     -6.4329147      1.3179159     -5.1149989      62.742316      1.3740002    
     52000   98.08842      -6.4717535      1.3566448     -5.1151087      78.169619      1.3740002    
     53000   97.276983     -6.4603035      1.3454219     -5.1148815      42.123864      1.3740002    
     54000   106.49077     -6.5881051      1.4728564     -5.1152487     -208.33787      1.3740002    
     55000   99.002846     -6.4847287      1.3692921     -5.1154366      58.114105      1.3740002    
     56000   89.997872     -6.3600113      1.2447458     -5.1152655      117.99788      1.3740002    
     57000   91.589984     -6.3818353      1.266766      -5.1150693      140.46321      1.3740002    
     58000   94.365849     -6.4202948      1.3051585     -5.1151363      48.442251      1.3740002    
     59000   94.415026     -6.4208397      1.3058387     -5.115001       107.9927       1.3740002    
     60000   92.068866     -6.3884912      1.2733893     -5.1151019      173.57176      1.3740002    
     61000   99.325057     -6.4887082      1.3737485     -5.1149596     -63.29617       1.3740002    
     62000   93.709343     -6.4108871      1.2960785     -5.1148086      72.282776      1.3740002    
     63000   96.79506      -6.4538799      1.3387565     -5.1151233      51.939327      1.3740002    
     64000   89.244319     -6.3492453      1.2343235     -5.1149218      278.61695      1.3740002    
     65000   79.219197     -6.2106933      1.0956677     -5.1150256      415.19182      1.3740002    
     66000   92.775009     -6.3982688      1.2831559     -5.1151129      136.42767      1.3740002    
     67000   95.52971      -6.4364731      1.3212557     -5.1152174      57.56344       1.3740002    
     68000   92.905188     -6.3999055      1.2849564     -5.1149491      130.71484      1.3740002    
     69000   95.911636     -6.4413599      1.3265381     -5.1148218      129.3587       1.3740002    
     70000   98.707926     -6.4800179      1.3652131     -5.1148048     -49.845272      1.3740002    
     71000   103.99277     -6.5532907      1.438307      -5.1149838     -112.11294      1.3740002    
     72000   95.735186     -6.4392445      1.3240976     -5.1151469      72.494098      1.3740002    
     73000   91.29633      -6.3776813      1.2627045     -5.1149768      202.42833      1.3740002    
     74000   88.994034     -6.3459401      1.2308618     -5.1150782      206.99874      1.3740002    
     75000   95.436727     -6.4349028      1.3199697     -5.1149331      51.639041      1.3740002    
     76000   84.592362     -6.285275       1.169983      -5.1152919      445.54521      1.3740002    
     77000   94.413552     -6.4207991      1.3058183     -5.1149808      102.27393      1.3740002    
     78000   99.077059     -6.4850082      1.3703185     -5.1146897      48.231953      1.3740002    
     79000   98.631103     -6.4790993      1.3641506     -5.1149487      79.571025      1.3740002    
     80000   92.515767     -6.3944574      1.2795704     -5.114887       131.75805      1.3740002    
     81000   100.6182      -6.5069496      1.3916338     -5.1153158     -111.61393      1.3740002    
     82000   88.110628     -6.3338973      1.2186436     -5.1152537      202.29229      1.3740002    
     83000   98.175215     -6.4730493      1.3578453     -5.1152041     -35.960391      1.3740002    
     84000   92.402107     -6.3931526      1.2779983     -5.1151542      159.30055      1.3740002    
     85000   93.007889     -6.4014568      1.2863768     -5.11508        91.582406      1.3740002    
     86000   93.656273     -6.4105174      1.2953445     -5.1151729      107.95687      1.3740002    
     87000   89.882072     -6.3582646      1.2431441     -5.1151204      133.13076      1.3740002    
     88000   97.12683      -6.4586302      1.3433452     -5.115285       2.2706353      1.3740002    
     89000   96.431187     -6.4489222      1.3337239     -5.1151983     -37.661504      1.3740002    
     90000   92.023026     -6.3879759      1.2727553     -5.1152205      169.63222      1.3740002    
     91000   93.430779     -6.4074916      1.2922257     -5.1152659      138.95339      1.3740002    
     92000   94.907053     -6.427618       1.3126438     -5.1149742      106.94653      1.3740002    
     93000   104.76679     -6.5637009      1.4490123     -5.1146886     -13.425795      1.3740002    
     94000   90.156198     -6.3618111      1.2469356     -5.1148755      239.14068      1.3740002    
     95000   90.368712     -6.3645564      1.2498748     -5.1146816      161.5546       1.3740002    
     96000   96.635976     -6.4514443      1.3365563     -5.114888       91.114906      1.3740002    
     97000   86.710284     -6.3144741      1.1992757     -5.1151984      239.53042      1.3740002    
     98000   82.881962     -6.2612822      1.1463268     -5.1149554      351.09758      1.3740002    
     99000   83.047428     -6.2638244      1.1486153     -5.1152091      288.44886      1.3740002    
    100000   90.304522     -6.3639988      1.248987      -5.1150118      213.43675      1.3740002    
    101000   91.543291     -6.3810935      1.2661202     -5.1149733      275.80653      1.3740002    
    102000   87.391904     -6.3237102      1.2087031     -5.1150072      255.32324      1.3740002    
    103000   95.83636      -6.4404711      1.3254969     -5.1149742      34.222593      1.3740002    
    104000   101.61108     -6.5202439      1.4053661     -5.1148777     -16.291695      1.3740002    
    105000   95.75641      -6.4393931      1.3243911     -5.1150019      129.69845      1.3740002    
    106000   92.386217     -6.3924288      1.2777786     -5.1146503      176.67319      1.3740002    
    107000   92.484065     -6.3942199      1.2791319     -5.115088       121.81308      1.3740002    
    108000   93.152406     -6.4033466      1.2883756     -5.114971       116.56739      1.3740002    
    109000   96.45321      -6.4487118      1.3340285     -5.1146833      52.942658      1.3740002    
    110000   95.619004     -6.4372599      1.3224907     -5.1147692      143.41311      1.3740002    
    111000   90.107226     -6.3610426      1.2462582     -5.1147844      241.33567      1.3740002    
    112000   94.868172     -6.4273224      1.3121061     -5.1152163      97.660858      1.3740002    
    113000   86.061302     -6.3052345      1.1902997     -5.1149347      291.05792      1.3740002    
    114000   94.362965     -6.4199286      1.3051186     -5.11481        154.57154      1.3740002    
    115000   95.760988     -6.4394397      1.3244545     -5.1149852      44.609337      1.3740002    
    116000   85.654398     -6.2994354      1.1846719     -5.1147635      312.64971      1.3740002    
    117000   90.693427     -6.3694814      1.2543659     -5.1151155      118.62052      1.3740002    
    118000   97.972587     -6.4700657      1.3550427     -5.1150229      20.578726      1.3740002    
    119000   91.956218     -6.3874279      1.2718313     -5.1155966      117.00883      1.3740002    
    120000   100.36325     -6.5032371      1.3881075     -5.1151296     -99.682186      1.3740002    
    121000   95.670424     -6.4384257      1.3232019     -5.1152238     -7.2718072      1.3740002    
    122000   93.58638      -6.4094733      1.2943778     -5.1150954      128.22497      1.3740002    
    123000   96.588462     -6.4510476      1.3358991     -5.1151485      7.0208885      1.3740002    
    124000   94.018602     -6.4155694      1.3003558     -5.1152136      162.83578      1.3740002    
    125000   90.726961     -6.3700611      1.2548297     -5.1152315      172.48744      1.3740002    
    126000   88.945485     -6.3451956      1.2301904     -5.1150052      240.22411      1.3740002    
    127000   89.151301     -6.3479454      1.233037      -5.1149085      306.43587      1.3740002    
    128000   89.017539     -6.3462059      1.2311869     -5.1150189      219.74055      1.3740002    
    129000   94.534742     -6.4223341      1.3074945     -5.1148396      61.759948      1.3740002    
    130000   97.357144     -6.4615767      1.3465307     -5.115046       39.133453      1.3740002    
    131000   95.519736     -6.4363081      1.3211178     -5.1151903      38.731096      1.3740002    
    132000   100.32889     -6.5029048      1.3876324     -5.1152724      1.5768575      1.3740002    
    133000   92.825405     -6.3986807      1.2838529     -5.1148278      130.57786      1.3740002    
    134000   88.561017     -6.3399469      1.2248729     -5.1150741      263.48859      1.3740002    
    135000   97.36756      -6.461749       1.3466747     -5.1150743      126.08333      1.3740002    
    136000   86.72814      -6.3148082      1.1995226     -5.1152856      241.49113      1.3740002    
    137000   97.941698     -6.46959        1.3546155     -5.1149745     -10.886676      1.3740002    
    138000   96.339369     -6.4476844      1.332454      -5.1152304      63.966031      1.3740002    
    139000   104.98954     -6.5668344      1.4520931     -5.1147413     -130.0167       1.3740002    
    140000   94.038208     -6.4154514      1.300627      -5.1148244      193.28664      1.3740002    
    141000   94.978092     -6.4288137      1.3136264     -5.1151873      27.666306      1.3740002    
    142000   101.69269     -6.5214515      1.4064949     -5.1149566     -96.03175       1.3740002    
    143000   97.01235      -6.4569799      1.3417619     -5.1152181      48.739954      1.3740002    
    144000   94.730029     -6.4253313      1.3101955     -5.1151358      108.70482      1.3740002    
    145000   100.57761     -6.50613        1.3910724     -5.1150576     -66.855651      1.3740002    
    146000   82.972476     -6.2626709      1.1475787     -5.1150923      313.96998      1.3740002    
    147000   103.42703     -6.5453364      1.4304822     -5.1148541     -179.58889      1.3740002    
    148000   81.727658     -6.245553       1.1303618     -5.1151912      374.11597      1.3740002    
    149000   87.816655     -6.3298506      1.2145777     -5.1152729      183.37099      1.3740002    
    150000   88.313394     -6.3365868      1.221448      -5.1151387      200.34856      1.3740002    
    151000   99.931285     -6.4969432      1.3821332     -5.1148101      34.381196      1.3740002    
    152000   99.159542     -6.4863308      1.3714593     -5.1148715      81.008221      1.3740002    
    153000   86.845694     -6.3161249      1.2011485     -5.1149764      229.22188      1.3740002    
    154000   92.280677     -6.3910935      1.2763189     -5.1147746      155.39396      1.3740002    
    155000   90.065236     -6.3606478      1.2456775     -5.1149703      140.94461      1.3740002    
    156000   88.074198     -6.3331609      1.2181397     -5.1150211      201.8511       1.3740002    
    157000   97.025679     -6.4572354      1.3419462     -5.1152892     -12.276399      1.3740002    
    158000   95.586152     -6.4370421      1.3220363     -5.1150058      2.9442165      1.3740002    
    159000   96.141643     -6.4447593      1.3297193     -5.11504        5.6675828      1.3740002    
    160000   97.243068     -6.4598637      1.3449529     -5.1149109      50.245763      1.3740002    
    161000   95.186309     -6.4316615      1.3165062     -5.1151553      112.2243       1.3740002    
    162000   88.129916     -6.3338361      1.2189104     -5.1149257      232.48757      1.3740002    
    163000   97.170163     -6.4589766      1.3439445     -5.1150321      115.14267      1.3740002    
    164000   94.55149      -6.4224792      1.3077261     -5.1147531      84.355719      1.3740002    
    165000   89.791588     -6.3568157      1.2418927     -5.114923       129.98005      1.3740002    
    166000   91.680379     -6.3830751      1.2680162     -5.1150588      148.19443      1.3740002    
    167000   98.979763     -6.483765       1.3689728     -5.1147922     -40.605849      1.3740002    
    168000   103.85864     -6.5516745      1.4364517     -5.1152228     -93.474159      1.3740002    
    169000   99.216335     -6.4874063      1.3722448     -5.1151615     -36.328452      1.3740002    
    170000   98.280681     -6.4743881      1.3593039     -5.1150842      36.201879      1.3740002    
    171000   98.094469     -6.4719036      1.3567285     -5.1151751      45.531312      1.3740002    
    172000   87.854608     -6.3301503      1.2151026     -5.1150476      232.8795       1.3740002    
    173000   97.808152     -6.4677652      1.3527685     -5.1149967      42.81247       1.3740002    
    174000   91.978007     -6.3872847      1.2721327     -5.115152       84.116798      1.3740002    
    175000   89.836575     -6.3577482      1.2425149     -5.1152333      241.32016      1.3740002    
    176000   97.332284     -6.4608876      1.3461868     -5.1147008      33.220356      1.3740002    
    177000   92.608891     -6.3956209      1.2808583     -5.1147626      150.38766      1.3740002    
    178000   100.66749     -6.5075338      1.3923156     -5.1152183     -92.384408      1.3740002    
    179000   87.41502      -6.3238358      1.2090228     -5.114813       308.0769       1.3740002    
    180000   83.303185     -6.2671532      1.1521526     -5.1150006      351.99322      1.3740002    
    181000   101.64915     -6.5208893      1.4058927     -5.1149966     -86.113248      1.3740002    
    182000   91.406131     -6.3789645      1.2642232     -5.1147413      259.21827      1.3740002    
    183000   95.61825      -6.4376841      1.3224803     -5.1152038      45.328         1.3740002    
    184000   100.46232     -6.5046741      1.3894779     -5.1151962     -63.524939      1.3740002    
    185000   87.339357     -6.3230326      1.2079763     -5.1150564      247.48341      1.3740002    
    186000   99.011645     -6.4843769      1.3694138     -5.1149632     -19.191999      1.3740002    
    187000   99.798947     -6.4953484      1.3803028     -5.1150456     -94.056964      1.3740002    
    188000   98.452131     -6.4767958      1.3616752     -5.1151206     -21.48445       1.3740002    
    189000   101.50743     -6.5188932      1.4039326     -5.1149606     -83.434232      1.3740002    
    190000   99.76518      -6.4950838      1.3798358     -5.115248      -0.23334075     1.3740002    
    191000   87.641282     -6.3270495      1.2121522     -5.1148974      270.87327      1.3740002    
    192000   89.431909     -6.3519757      1.236918      -5.1150577      280.51563      1.3740002    
    193000   103.54018     -6.5472854      1.4320472     -5.1152381     -100.6324       1.3740002    
    194000   95.648017     -6.4381399      1.322892      -5.1152479      90.913148      1.3740002    
    195000   91.821272     -6.384815       1.2699649     -5.1148501      173.88248      1.3740002    
    196000   97.781208     -6.4672935      1.3523958     -5.1148977     -9.2482372      1.3740002    
    197000   91.928958     -6.386732       1.2714543     -5.1152777      109.60678      1.3740002    
    198000   98.899414     -6.4829495      1.3678615     -5.115088       21.933552      1.3740002    
    199000   95.381629     -6.4343657      1.3192076     -5.1151581      38.708816      1.3740002    
    200000   90.055494     -6.3603424      1.2455427     -5.1147997      218.23387      1.3740002    
    201000   95.556097     -6.4365535      1.3216207     -5.1149328      163.24295      1.3740002    
    202000   97.231546     -6.4596941      1.3447935     -5.1149006      110.39671      1.3740002    
    203000   90.712782     -6.3697082      1.2546336     -5.1150746      239.51475      1.3740002    
    204000   95.491155     -6.4358031      1.3207225     -5.1150806      57.998132      1.3740002    
    205000   94.338099     -6.4196179      1.3047747     -5.1148432      71.783715      1.3740002    
    206000   92.720124     -6.3970384      1.2823968     -5.1146417      166.87698      1.3740002    
    207000   92.94003      -6.4003992      1.2854383     -5.114961       113.54401      1.3740002    
    208000   96.931693     -6.4555258      1.3406463     -5.1148795      26.646876      1.3740002    
    209000   92.768599     -6.3978014      1.2830672     -5.1147341      82.760184      1.3740002    
    210000   93.549346     -6.408827       1.2938656     -5.1149614      118.53194      1.3740002    
    211000   89.093682     -6.3474029      1.2322401     -5.1151629      117.128        1.3740002    
    212000   94.234897     -6.4186579      1.3033474     -5.1153105      113.05723      1.3740002    
    213000   90.912752     -6.372477       1.2573993     -5.1150777      129.23313      1.3740002    
    214000   94.057476     -6.4158387      1.3008935     -5.1149452      89.543264      1.3740002    
    215000   87.206044     -6.3210481      1.2061325     -5.1149157      238.54038      1.3740002    
    216000   99.593369     -6.4926057      1.3774595     -5.1151462     -50.49762       1.3740002    
    217000   93.510823     -6.4084856      1.2933328     -5.1151528      7.1470413      1.3740002    
    218000   101.33827     -6.5164867      1.4015929     -5.1148938     -17.495974      1.3740002    
    219000   96.483608     -6.4495125      1.3344489     -5.1150636      103.05048      1.3740002    
    220000   95.319037     -6.4331912      1.3183419     -5.1148493      115.24124      1.3740002    
    221000   92.686182     -6.3969141      1.2819273     -5.1149868      99.400097      1.3740002    
    222000   89.20152      -6.348889       1.2337315     -5.1151574      331.71631      1.3740002    
    223000   100.94452     -6.5112378      1.396147      -5.1150907     -86.705683      1.3740002    
    224000   94.747996     -6.4254691      1.310444      -5.1150251      44.95226       1.3740002    
    225000   100.85743     -6.5098443      1.3949426     -5.1149018     -59.094947      1.3740002    
    226000   97.77407      -6.4673987      1.3522971     -5.1151016      9.7717641      1.3740002    
    227000   93.35838      -6.4064882      1.2912244     -5.1152638      47.680618      1.3740002    
    228000   93.99894      -6.4151376      1.3000839     -5.1150537      66.444673      1.3740002    
    229000   88.198821     -6.3349124      1.2198634     -5.115049       259.81985      1.3740002    
    230000   91.505854     -6.3803287      1.2656024     -5.1147263      152.35914      1.3740002    
    231000   87.893857     -6.3308965      1.2156455     -5.115251       268.67132      1.3740002    
    232000   93.922449     -6.4140756      1.2990259     -5.1150497      68.776017      1.3740002    
    233000   89.500324     -6.352998       1.2378643     -5.1151338      187.39669      1.3740002    
    234000   103.9833      -6.5532118      1.438176      -5.1150359     -95.312263      1.3740002    
    235000   88.179458     -6.3348091      1.2195956     -5.1152135      137.27677      1.3740002    
    236000   95.933485     -6.4419527      1.3268403     -5.1151124     -11.194197      1.3740002    
    237000   101.16174     -6.514104       1.3991513     -5.1149527     -138.6445       1.3740002    
    238000   93.582252     -6.4092265      1.2943207     -5.1149057      144.96722      1.3740002    
    239000   87.993428     -6.3319591      1.2170226     -5.1149365      202.01844      1.3740002    
    240000   91.920321     -6.3861711      1.2713348     -5.1148362      90.980759      1.3740002    
    241000   94.393471     -6.4206876      1.3055406     -5.115147       77.560769      1.3740002    
    242000   90.276902     -6.363629       1.248605      -5.115024       204.92213      1.3740002    
    243000   91.616915     -6.3821641      1.2671385     -5.1150257      142.83877      1.3740002    
    244000   92.840179     -6.3989283      1.2840572     -5.1148711      157.07365      1.3740002    
    245000   94.259973     -6.4182996      1.3036942     -5.1146054      56.33796       1.3740002    
    246000   81.79258      -6.2461863      1.1312597     -5.1149266      395.37642      1.3740002    
    247000   93.866138     -6.4134971      1.2982471     -5.11525        93.484403      1.3740002    
    248000   103.891       -6.5519072      1.4368993     -5.1150079     -160.99198      1.3740002    
    249000   91.381127     -6.3786587      1.2638773     -5.1147813      162.59197      1.3740002    
    250000   98.278028     -6.4745949      1.3592672     -5.1153277      64.446788      1.3740002    
    251000   97.577527     -6.4643254      1.3495787     -5.1147467      9.4249186      1.3740002    
    252000   103.56118     -6.5474246      1.4323377     -5.1150869     -159.35993      1.3740002    
    253000   93.634323     -6.4100976      1.2950409     -5.1150567      71.985411      1.3740002    
    254000   106.30848     -6.5850419      1.4703351     -5.1147068     -91.211428      1.3740002    
    255000   93.997742     -6.4150411      1.3000673     -5.1149738      73.219306      1.3740002    
    256000   92.935487     -6.4004499      1.2853754     -5.1150745      120.00618      1.3740002    
    257000   93.310367     -6.4055328      1.2905603     -5.1149725      125.60826      1.3740002    
    258000   91.434681     -6.3796817      1.264618      -5.1150637      105.63764      1.3740002    
    259000   104.58951     -6.562043       1.4465603     -5.1154827     -148.90205      1.3740002    
    260000   87.808582     -6.3298265      1.2144661     -5.1153604      177.82547      1.3740002    
    261000   91.439405     -6.3794748      1.2646834     -5.1147914      178.05812      1.3740002    
    262000   95.608402     -6.4373297      1.3223441     -5.1149856      43.579297      1.3740002    
    263000   96.618218     -6.451486       1.3363107     -5.1151754      46.653611      1.3740002    
    264000   96.623754     -6.451319       1.3363872     -5.1149318      42.240964      1.3740002    
    265000   92.634283     -6.39621        1.2812095     -5.1150005      197.8481       1.3740002    
    266000   92.281998     -6.3912935      1.2763371     -5.1149564      166.13112      1.3740002    
    267000   90.82208      -6.3711526      1.2561453     -5.1150073      233.56386      1.3740002    
    268000   98.15785      -6.4724162      1.3576051     -5.1148111      63.953175      1.3740002    
    269000   101.60998     -6.5202711      1.4053509     -5.1149202     -67.823978      1.3740002    
    270000   89.421205     -6.3517299      1.23677       -5.11496        245.04951      1.3740002    
    271000   88.553636     -6.3398714      1.2247708     -5.1151006      280.06655      1.3740002    
    272000   96.274285     -6.4460537      1.3315538     -5.1144999      94.962229      1.3740002    
    273000   96.910927     -6.4550398      1.3403591     -5.1146807      6.4768854      1.3740002    
    274000   90.177346     -6.3622039      1.247228      -5.1149759      99.943152      1.3740002    
    275000   92.045162     -6.3878686      1.2730615     -5.1148071      125.4462       1.3740002    
    276000   107.2305      -6.5978598      1.4830875     -5.1147723     -147.0558       1.3740002    
    277000   91.178616     -6.3758792      1.2610764     -5.1148028      206.00397      1.3740002    
    278000   85.626099     -6.2992568      1.1842805     -5.1149763      228.65301      1.3740002    
    279000   84.139575     -6.2787258      1.1637206     -5.1150051      315.15468      1.3740002    
    280000   98.361169     -6.4755357      1.3604171     -5.1151186     -51.909466      1.3740002    
    281000   101.78701     -6.5226768      1.4077995     -5.1148774     -36.416274      1.3740002    
    282000   104.12103     -6.5549998      1.4400808     -5.114919      -196.59999      1.3740002    
    283000   100.91393     -6.510868       1.3957239     -5.1151441     -43.183586      1.3740002    
    284000   97.582237     -6.464676       1.3496439     -5.1150321      30.615428      1.3740002    
    285000   88.090229     -6.3333018      1.2183615     -5.1149403      254.29804      1.3740002    
    286000   97.409956     -6.4627092      1.3472611     -5.1154481     -15.621042      1.3740002    
    287000   93.413466     -6.4071441      1.2919863     -5.1151578      70.69797       1.3740002    
    288000   95.824943     -6.4403071      1.325339      -5.1149681      112.63522      1.3740002    
    289000   97.488049     -6.4634993      1.3483412     -5.1151582      33.168189      1.3740002    
    290000   97.506171     -6.4635879      1.3485918     -5.1149961      70.249506      1.3740002    
    291000   94.463069     -6.4217617      1.3065032     -5.1152585      23.847271      1.3740002    
    292000   86.261038     -6.3077482      1.1930622     -5.114686       356.51428      1.3740002    
    293000   91.032076     -6.3741671      1.2590497     -5.1151175      141.70761      1.3740002    
    294000   94.723245     -6.4251632      1.3101016     -5.1150616      97.556086      1.3740002    
    295000   91.080765     -6.3744721      1.2597231     -5.114749       144.50562      1.3740002    
    296000   97.857135     -6.4682828      1.3534459     -5.1148368     -6.3602979      1.3740002    
    297000   95.876948     -6.4408264      1.3260583     -5.1147681      67.672316      1.3740002    
    298000   95.776098     -6.4397617      1.3246635     -5.1150983      66.541697      1.3740002    
    299000   96.264112     -6.4463491      1.3314131     -5.114936       47.128432      1.3740002    
    300000   94.650544     -6.4242556      1.3090961     -5.1151595      66.552499      1.3740002    
    301000   86.003026     -6.3047296      1.1894937     -5.1152359      189.95487      1.3740002    
    302000   89.809305     -6.3574254      1.2421377     -5.1152877      212.33299      1.3740002    
    303000   93.955313     -6.41442        1.2994805     -5.1149395      60.70385       1.3740002    
    304000   94.335957     -6.4198392      1.3047451     -5.1150941      74.069651      1.3740002    
    305000   106.61219     -6.5896443      1.4745357     -5.1151086     -220.32272      1.3740002    
    306000   86.04546      -6.3050591      1.1900806     -5.1149784      284.37256      1.3740002    
    307000   90.270547     -6.3635103      1.2485171     -5.1149932      190.59136      1.3740002    
    308000   89.202576     -6.3486779      1.2337462     -5.1149318      234.25392      1.3740002    
    309000   92.524129     -6.3948789      1.279686      -5.1151929      94.044082      1.3740002    
    310000   94.32473      -6.4197663      1.3045898     -5.1151765      114.70025      1.3740002    
    311000   90.159166     -6.362181       1.2469766     -5.1152044      240.2476       1.3740002    
    312000   95.827529     -6.4404455      1.3253748     -5.1150707      55.168559      1.3740002    
    313000   94.665206     -6.4244471      1.3092989     -5.1151482      58.042744      1.3740002    
    314000   96.229874     -6.4461187      1.3309396     -5.1151791      47.592932      1.3740002    
    315000   91.187198     -6.376376       1.2611951     -5.1151809      240.14251      1.3740002    
    316000   93.362714     -6.4061287      1.2912843     -5.1148444      38.765126      1.3740002    
    317000   93.618759     -6.4095538      1.2948257     -5.1147281      177.07211      1.3740002    
    318000   86.985478     -6.3180574      1.2030818     -5.1149756      171.51319      1.3740002    
    319000   106.01394     -6.5810606      1.4662613     -5.1147993     -112.50249      1.3740002    
    320000   91.56194      -6.3812015      1.2663781     -5.1148233      162.35765      1.3740002    
    321000   101.8187      -6.5235213      1.4082378     -5.1152835     -51.134014      1.3740002    
    322000   99.758891     -6.4946505      1.3797488     -5.1149016      14.776138      1.3740002    
    323000   98.212855     -6.4733028      1.3583658     -5.1149369     -3.6418063      1.3740002    
    324000   99.55902      -6.491802       1.3769844     -5.1148176     -28.672281      1.3740002    
    325000   91.050219     -6.374121       1.2593006     -5.1148204      136.76101      1.3740002    
    326000   88.44003      -6.3379803      1.2231995     -5.1147808      234.96402      1.3740002    
    327000   93.141291     -6.4032972      1.2882219     -5.1150753      56.038625      1.3740002    
    328000   97.954039     -6.4700321      1.3547862     -5.1152459     -7.2711721      1.3740002    
    329000   82.561352     -6.2569961      1.1418925     -5.1151037      317.00212      1.3740002    
    330000   98.399079     -6.4759913      1.3609415     -5.1150499     -53.502133      1.3740002    
    331000   98.808904     -6.4819722      1.3666097     -5.1153625     -71.495396      1.3740002    
    332000   87.244237     -6.3220828      1.2066607     -5.1154221      152.97565      1.3740002    
    333000   97.54528      -6.4642902      1.3491327     -5.1151574      17.887596      1.3740002    
    334000   104.74011     -6.563828       1.4486433     -5.1151847     -169.53609      1.3740002    
    335000   101.08382     -6.5133341      1.3980737     -5.1152604     -67.134739      1.3740002    
    336000   93.354425     -6.4063024      1.2911697     -5.1151327      86.747948      1.3740002    
    337000   102.42174     -6.5318332      1.4165782     -5.115255      -136.72621      1.3740002    
    338000   95.677201     -6.4385049      1.3232956     -5.1152092      47.88903       1.3740002    
    339000   102.1674      -6.5281596      1.4130605     -5.1150991     -61.847591      1.3740002    
    340000   98.496955     -6.4772667      1.3622952     -5.1149715     -56.361075      1.3740002    
    341000   90.659632     -6.3687351      1.2538985     -5.1148366      226.24521      1.3740002    
    342000   89.281174     -6.3496892      1.2348332     -5.114856       224.74953      1.3740002    
    343000   93.746433     -6.4119227      1.2965915     -5.1153312     -33.349666      1.3740002    
    344000   94.825184     -6.4268109      1.3115115     -5.1152994      108.90574      1.3740002    
    345000   97.585597     -6.4647566      1.3496903     -5.1150663      63.885852      1.3740002    
    346000   84.090512     -6.2780146      1.163042      -5.1149726      263.66133      1.3740002    
    347000   98.73181      -6.4804197      1.3655434     -5.1148763     -57.174271      1.3740002    
    348000   88.278926     -6.3357415      1.2209713     -5.1147702      221.73061      1.3740002    
    349000   92.936172     -6.4003901      1.2853849     -5.1150052      167.40176      1.3740002    
    350000   96.407713     -6.4481264      1.3333992     -5.1147272      64.803162      1.3740002    
    351000   99.901076     -6.4967559      1.3817154     -5.1150405      67.796189      1.3740002    
    352000   97.348209     -6.4616469      1.3464071     -5.1152399      6.7677263      1.3740002    
    353000   85.739042     -6.3009835      1.1858426     -5.1151409      232.16635      1.3740002    
    354000   81.427205     -6.2411991      1.1262063     -5.1149929      346.56704      1.3740002    
    355000   90.05808      -6.3606193      1.2455785     -5.1150408      187.42409      1.3740002    
    356000   95.547307     -6.4365008      1.3214991     -5.1150017      50.247931      1.3740002    
    357000   102.94037     -6.5386655      1.4237513     -5.1149142     -69.453791      1.3740002    
    358000   93.391504     -6.4066883      1.2916825     -5.1150058      181.37513      1.3740002    
    359000   95.097146     -6.4301435      1.315273      -5.1148705      77.217298      1.3740002    
    360000   90.060766     -6.3602362      1.2456156     -5.1146205      199.55374      1.3740002    
    361000   91.920873     -6.3863659      1.2713425     -5.1150234      100.20902      1.3740002    
    362000   87.023402     -6.3186271      1.2036064     -5.1150208      150.68223      1.3740002    
    363000   97.098403     -6.4577251      1.342952      -5.1147731     -15.354953      1.3740002    
    364000   88.558612     -6.3399497      1.2248396     -5.1151101      181.60047      1.3740002    
    365000   92.90578      -6.4000295      1.2849646     -5.1150649      113.30677      1.3740002    
    366000   103.18029     -6.5421852      1.4270696     -5.1151156     -139.75611      1.3740002    
    367000   94.768389     -6.4258921      1.310726      -5.1151661      111.3699       1.3740002    
    368000   96.51201      -6.4499287      1.3348417     -5.1150869      157.18346      1.3740002    
    369000   93.12295      -6.4030338      1.2879682     -5.1150656      74.186758      1.3740002    
    370000   89.382025     -6.3513802      1.2362281     -5.1151521      249.84366      1.3740002    
    371000   88.06165      -6.3328312      1.2179662     -5.114865       263.39741      1.3740002    
    372000   94.824417     -6.4263453      1.3115009     -5.1148443      162.50839      1.3740002    
    373000   101.14499     -6.5139098      1.3989197     -5.1149901     -35.16778       1.3740002    
    374000   98.312253     -6.4747564      1.3597406     -5.1150158     -42.776651      1.3740002    
    375000   96.691888     -6.4524633      1.3373296     -5.1151337      36.842649      1.3740002    
    376000   96.016702     -6.4429144      1.3279912     -5.1149232      70.074379      1.3740002    
    377000   96.218829     -6.4457435      1.3307868     -5.1149567      75.513325      1.3740002    
    378000   94.150131     -6.4172542      1.302175      -5.1150792      34.669691      1.3740002    
    379000   97.319615     -6.4612094      1.3460116     -5.1151978     -12.517399      1.3740002    
    380000   92.386231     -6.3926252      1.2777788     -5.1148464      150.16664      1.3740002    
    381000   91.120763     -6.3750713      1.2602763     -5.114795       220.15222      1.3740002    
    382000   91.906618     -6.3863231      1.2711453     -5.1151778      59.998352      1.3740002    
    383000   86.899131     -6.3169217      1.2018876     -5.1150341      226.83699      1.3740002    
    384000   90.955102     -6.3731622      1.2579851     -5.1151771      139.67506      1.3740002    
    385000   95.678611     -6.4383818      1.3233151     -5.1150667      29.359757      1.3740002    
    386000   90.604721     -6.3682594      1.253139      -5.1151204      105.73654      1.3740002    
    387000   92.728273     -6.3974498      1.2825095     -5.1149403      112.89082      1.3740002    
    388000   90.690378     -6.3692531      1.2543237     -5.1149294      198.15121      1.3740002    
    389000   94.688617     -6.4244787      1.3096227     -5.114856       132.78936      1.3740002    
    390000   87.335442     -6.322807       1.2079221     -5.1148848      305.5596       1.3740002    
    391000   99.756366     -6.4946395      1.3797139     -5.1149256     -49.94877       1.3740002    
    392000   98.222003     -6.4735327      1.3584924     -5.1150403      80.821059      1.3740002    
    393000   100.02061     -6.4987921      1.3833687     -5.1154234     -35.977022      1.3740002    
    394000   99.668204     -6.4937031      1.3784945     -5.1152085     -58.422466      1.3740002    
    395000   88.715339     -6.3421441      1.2270073     -5.1151369      239.19596      1.3740002    
    396000   95.467601     -6.435441       1.3203967     -5.1150443      36.756719      1.3740002    
    397000   95.337168     -6.433604       1.3185927     -5.1150114      122.87906      1.3740002    
    398000   94.997041     -6.4288358      1.3138884     -5.1149474      137.35299      1.3740002    
    399000   84.639352     -6.2856914      1.170633      -5.1150584      333.26619      1.3740002    
    400000   92.244176     -6.3911081      1.275814      -5.1152941      152.31592      1.3740002    
    401000   87.089379     -6.3196323      1.2045189     -5.1151135      327.10548      1.3740002    
    402000   92.730651     -6.3974814      1.2825424     -5.114939       213.63898      1.3740002    
    403000   95.575228     -6.4372433      1.3218853     -5.115358       28.941503      1.3740002    
    404000   83.726678     -6.2732377      1.1580099     -5.1152278      308.52375      1.3740002    
    405000   101.17553     -6.5142604      1.3993422     -5.1149183     -61.728027      1.3740002    
    406000   85.750381     -6.3009499      1.1859994     -5.1149505      306.80491      1.3740002    
    407000   89.957646     -6.3595889      1.2441894     -5.1153995      176.03659      1.3740002    
    408000   94.902862     -6.4277023      1.3125859     -5.1151164      29.305385      1.3740002    
    409000   99.942058     -6.4972897      1.3822822     -5.1150076     -68.9915        1.3740002    
    410000   99.147825     -6.486372       1.3712973     -5.1150748      22.90151       1.3740002    
    411000   92.280324     -6.3911902      1.276314      -5.1148762      174.9955       1.3740002    
    412000   95.451074     -6.4350568      1.3201681     -5.1148887      154.98968      1.3740002    
    413000   84.970831     -6.2899407      1.1752176     -5.1147231      325.28269      1.3740002    
    414000   89.970122     -6.3592716      1.244362      -5.1149096      255.09121      1.3740002    
    415000   94.994152     -6.4289531      1.3138485     -5.1151046      97.950808      1.3740002    
    416000   90.841327     -6.3713221      1.2564115     -5.1149107      143.01047      1.3740002    
    417000   97.778311     -6.4675148      1.3523557     -5.1151591     -31.055758      1.3740002    
    418000   89.210389     -6.3489923      1.2338542     -5.1151381      260.6546       1.3740002    
    419000   93.215883     -6.4043921      1.2892535     -5.1151385      68.132879      1.3740002    
    420000   92.242987     -6.3911415      1.2757976     -5.1153439      151.68661      1.3740002    
    421000   90.272282     -6.3635381      1.2485411     -5.114997       181.76193      1.3740002    
    422000   93.788869     -6.4123216      1.2971784     -5.1151432      73.17008       1.3740002    
    423000   94.072519     -6.4162251      1.3011015     -5.1151236      163.54955      1.3740002    
    424000   95.838807     -6.4404534      1.3255308     -5.1149226      92.805889      1.3740002    
    425000   92.14667      -6.3897406      1.2744654     -5.1152752      108.63555      1.3740002    
    426000   93.166383     -6.403404       1.2885689     -5.114835       102.4259       1.3740002    
    427000   92.377923     -6.3928424      1.2776639     -5.1151785      144.48661      1.3740002    
    428000   93.191881     -6.404231       1.2889216     -5.1153094      95.228051      1.3740002    
    429000   94.519765     -6.4226543      1.3072873     -5.115367       83.631476      1.3740002    
    430000   94.621545     -6.4238728      1.308695      -5.1151778      179.00322      1.3740002    
    431000   94.678545     -6.4245867      1.3094834     -5.1151033      80.056806      1.3740002    
    432000   90.469368     -6.3661642      1.2512669     -5.1148973      234.33654      1.3740002    
    433000   95.104598     -6.43039        1.3153761     -5.1150139      116.32307      1.3740002    
    434000   106.03539     -6.5814996      1.4665581     -5.1149416     -222.23782      1.3740002    
    435000   95.531611     -6.4362888      1.321282      -5.1150068     -6.9508494      1.3740002    
    436000   90.607834     -6.3683027      1.2531821     -5.1151206      259.9983       1.3740002    
    437000   92.933206     -6.4007715      1.2853439     -5.1154276      128.6528       1.3740002    
    438000   97.610039     -6.465096       1.3500284     -5.1150676     -25.427181      1.3740002    
    439000   98.152953     -6.4728085      1.3575374     -5.1152712      1.949833       1.3740002    
    440000   83.981842     -6.2768544      1.161539      -5.1153154      264.05326      1.3740002    
    441000   96.730215     -6.4526852      1.3378597     -5.1148255      0.55112046     1.3740002    
    442000   97.974582     -6.4701282      1.3550703     -5.1150579      26.919132      1.3740002    
    443000   81.671522     -6.2442833      1.1295854     -5.1146979      363.10044      1.3740002    
    444000   91.768107     -6.3840873      1.2692296     -5.1148577      153.58176      1.3740002    
    445000   87.771276     -6.3289892      1.2139501     -5.1150391      187.83905      1.3740002    
    446000   96.512387     -6.450044       1.3348469     -5.1151971      0.15942123     1.3740002    
    447000   94.008725     -6.4153387      1.3002192     -5.1151195      94.291606      1.3740002    
    448000   97.183212     -6.458944       1.344125      -5.114819       53.805676      1.3740002    
    449000   91.15772      -6.3759284      1.2607874     -5.115141       198.20159      1.3740002    
    450000   90.565059     -6.3674631      1.2525904     -5.1148727      174.88807      1.3740002    
    451000   92.808275     -6.3985256      1.283616      -5.1149096      200.56899      1.3740002    
    452000   88.455107     -6.3385431      1.223408      -5.115135       265.59073      1.3740002    
    453000   95.116474     -6.4306936      1.3155403     -5.1151533      44.938491      1.3740002    
    454000   89.98327      -6.3593441      1.2445438     -5.1148003      287.90034      1.3740002    
    455000   92.869673     -6.3994614      1.2844652     -5.1149962      158.15887      1.3740002    
    456000   94.882066     -6.4273987      1.3122982     -5.1151005      46.895623      1.3740002    
    457000   93.880901     -6.4134304      1.2984513     -5.1149791      185.2657       1.3740002    
    458000   89.808704     -6.3569347      1.2421294     -5.1148053      206.17841      1.3740002    
    459000   86.90074      -6.3165313      1.2019098     -5.1146214      240.96491      1.3740002    
    460000   99.293783     -6.488316       1.373316      -5.115          2.5551329      1.3740002    
    461000   98.387835     -6.4755483      1.360786      -5.1147623     -41.81104       1.3740002    
    462000   91.218983     -6.3768125      1.2616347     -5.1151778      107.05105      1.3740002    
    463000   90.939146     -6.3728569      1.2577644     -5.1150926      188.19785      1.3740002    
    464000   99.635967     -6.4929532      1.3780487     -5.1149046     -7.0882737      1.3740002    
    465000   95.777766     -6.4398179      1.3246865     -5.1151313     -9.8602093      1.3740002    
    466000   90.531979     -6.36715        1.2521329     -5.1150171      62.541629      1.3740002    
    467000   98.601328     -6.4786401      1.3637387     -5.1149013     -1.2882129      1.3740002    
    468000   91.140369     -6.3755361      1.2605475     -5.1149886      68.483776      1.3740002    
    469000   103.93417     -6.5524646      1.4374964     -5.1149682     -71.81702       1.3740002    
    470000   88.350089     -6.3369534      1.2219555     -5.1149979      256.53715      1.3740002    
    471000   102.57819     -6.5338304      1.4187421     -5.1150883     -11.017266      1.3740002    
    472000   99.570689     -6.4925289      1.3771458     -5.1153831     -47.504362      1.3740002    
    473000   95.927952     -6.4418279      1.3267637     -5.1150642      114.36277      1.3740002    
    474000   94.347101     -6.4199935      1.3048992     -5.1150943      88.030968      1.3740002    
    475000   94.173541     -6.4177398      1.3024988     -5.115241       219.85789      1.3740002    
    476000   97.811591     -6.4680329      1.352816      -5.1152169     -27.163181      1.3740002    
    477000   96.853454     -6.4543301      1.3395642     -5.1147659      75.143345      1.3740002    
    478000   91.876716     -6.3856079      1.2707317     -5.1148761      157.62333      1.3740002    
    479000   93.852705     -6.4130946      1.2980613     -5.1150332      119.58855      1.3740002    
    480000   96.006205     -6.4429663      1.327846      -5.1151202      77.770717      1.3740002    
    481000   96.232673     -6.4459541      1.3309783     -5.1149758      178.79489      1.3740002    
    482000   106.07575     -6.5822604      1.4671162     -5.1151442     -167.37466      1.3740002    
    483000   99.814755     -6.495825       1.3805215     -5.1153036     -93.377798      1.3740002    
    484000   99.14716      -6.4863175      1.3712881     -5.1150294     -37.361804      1.3740002    
    485000   86.062035     -6.3056036      1.1903099     -5.1152938      366.31808      1.3740002    
    486000   95.167146     -6.4314178      1.3162411     -5.1151766      78.607614      1.3740002    
    487000   93.722199     -6.4112957      1.2962563     -5.1150393      83.136861      1.3740002    
    488000   100.34379     -6.5027928      1.3878384     -5.1149544     -55.932151      1.3740002    
    489000   97.126942     -6.4584938      1.3433468     -5.115147       91.936418      1.3740002    
    490000   92.883056     -6.3997027      1.2846503     -5.1150524      55.307209      1.3740002    
    491000   102.18817     -6.5280152      1.4133477     -5.1146675     -135.55855      1.3740002    
    492000   89.594855     -6.3543161      1.2391717     -5.1151444      72.668869      1.3740002    
    493000   98.438595     -6.476688       1.361488      -5.1152         29.108852      1.3740002    
    494000   105.30709     -6.5717804      1.456485      -5.1152954     -108.84358      1.3740002    
    495000   93.130251     -6.4030814      1.2880692     -5.1150123      112.98928      1.3740002    
    496000   92.571893     -6.3952655      1.2803466     -5.1149189      111.77454      1.3740002    
    497000   93.352171     -6.4061961      1.2911385     -5.1150575      151.55421      1.3740002    
    498000   91.562274     -6.3815887      1.2663827     -5.1152059      126.88824      1.3740002    
    499000   91.767938     -6.384317       1.2692273     -5.1150898      214.22326      1.3740002    
    500000   95.62244      -6.4374277      1.3225382     -5.1148895      122.03063      1.3740002    
    501000   94.619778     -6.4236525      1.3086706     -5.1149819      96.936405      1.3740002    
    502000   93.604137     -6.4097066      1.2946234     -5.1150832      52.408826      1.3740002    
    503000   90.670107     -6.3691258      1.2540433     -5.1150825      149.92416      1.3740002    
    504000   94.069001     -6.4161693      1.3010529     -5.1151165      131.72101      1.3740002    
    505000   94.881441     -6.4277317      1.3122896     -5.1154421      27.678828      1.3740002    
    506000   94.898551     -6.4277016      1.3125262     -5.1151754     -44.923921      1.3740002    
    507000   89.004091     -6.3461509      1.2310009     -5.11515        167.00389      1.3740002    
    508000   95.998785     -6.4428932      1.3277434     -5.1151498     -14.941876      1.3740002    
    509000   92.511094     -6.3945248      1.2795057     -5.115019       135.33136      1.3740002    
    510000   90.657964     -6.3687178      1.2538754     -5.1148424      202.23191      1.3740002    
    511000   92.27777      -6.3912045      1.2762787     -5.1149259      153.86277      1.3740002    
    512000   92.665013     -6.3967108      1.2816346     -5.1150762      107.42176      1.3740002    
    513000   77.446117     -6.1862365      1.0711445     -5.115092       402.69792      1.3740002    
    514000   100.64457     -6.5071632      1.3919985     -5.1151646     -120.73301      1.3740002    
    515000   93.125653     -6.4030919      1.2880056     -5.1150863      114.99874      1.3740002    
    516000   97.5395       -6.4641198      1.3490528     -5.115067       0.67341861     1.3740002    
    517000   92.161458     -6.389749       1.27467       -5.1150791      133.40095      1.3740002    
    518000   85.003408     -6.2908641      1.1756682     -5.1151959      241.04985      1.3740002    
    519000   86.59271      -6.3129363      1.1976495     -5.1152867      282.08492      1.3740002    
    520000   102.6696      -6.5347415      1.4200063     -5.1147351     -107.60082      1.3740002    
    521000   97.392221     -6.4621183      1.3470158     -5.1151025     -2.3698208      1.3740002    
    522000   92.990911     -6.4011603      1.286142      -5.1150183      79.19845       1.3740002    
    523000   93.505707     -6.4081202      1.2932621     -5.1148581      63.066835      1.3740002    
    524000   94.700313     -6.4250968      1.3097844     -5.1153124      55.821507      1.3740002    
    525000   89.106615     -6.3474639      1.2324189     -5.115045       216.53916      1.3740002    
    526000   99.026107     -6.4846053      1.3696138     -5.1149915      38.466188      1.3740002    
    527000   101.0342      -6.5122126      1.3973875     -5.1148251     -46.128274      1.3740002    
    528000   89.480559     -6.3525898      1.2375909     -5.1149989      269.91742      1.3740002    
    529000   101.37199     -6.5168977      1.4020593     -5.1148384     -7.8593524      1.3740002    
    530000   91.606992     -6.381855       1.2670012     -5.1148537      171.42444      1.3740002    
    531000   91.761808     -6.3842575      1.2691425     -5.115115       191.36136      1.3740002    
    532000   94.961556     -6.428678       1.3133977     -5.1152803      62.305042      1.3740002    
    533000   99.825418     -6.4958719      1.3806689     -5.1152029     -30.767225      1.3740002    
    534000   91.007333     -6.3738019      1.2587075     -5.1150944      172.77704      1.3740002    
    535000   92.588709     -6.3958028      1.2805792     -5.1152236      58.387141      1.3740002    
    536000   94.919232     -6.4280247      1.3128123     -5.1152125      35.454902      1.3740002    
    537000   89.857374     -6.3582343      1.2428026     -5.1154318      168.23134      1.3740002    
    538000   95.362512     -6.4338156      1.3189432     -5.1148724      55.846552      1.3740002    
    539000   92.135491     -6.3892024      1.2743108     -5.1148916      147.36459      1.3740002    
    540000   100.45956     -6.5045936      1.3894396     -5.115154      -58.747118      1.3740002    
    541000   90.700196     -6.369372       1.2544595     -5.1149125      220.88371      1.3740002    
    542000   98.416512     -6.4765235      1.3611826     -5.1153409     -31.100276      1.3740002    
    543000   100.21094     -6.5006926      1.386001      -5.1146916     -4.3508163      1.3740002    
    544000   97.683122     -6.4663686      1.3510392     -5.1153294     -25.361652      1.3740002    
    545000   91.150826     -6.3757987      1.2606921     -5.1151066      139.35841      1.3740002    
    546000   90.408486     -6.3655437      1.2504249     -5.1151188      136.02175      1.3740002    
    547000   90.815384     -6.3712937      1.2560526     -5.1152411      224.83194      1.3740002    
    548000   83.945646     -6.2759693      1.1610384     -5.1149309      374.72245      1.3740002    
    549000   102.56233     -6.5336241      1.4185227     -5.1151015     -118.45244      1.3740002    
    550000   91.712847     -6.3837079      1.2684653     -5.1152426      147.34328      1.3740002    
    551000   91.564472     -6.3810393      1.2664131     -5.1146262      138.37763      1.3740002    
    552000   97.79325      -6.4675326      1.3525623     -5.1149702     -27.246667      1.3740002    
    553000   96.378964     -6.4480119      1.3330016     -5.1150103      64.141187      1.3740002    
    554000   87.744449     -6.3285142      1.213579      -5.1149352      186.21056      1.3740002    
    555000   92.476756     -6.3941439      1.2790308     -5.1151131      169.79062      1.3740002    
    556000   88.672171     -6.3416252      1.2264102     -5.115215       155.02804      1.3740002    
    557000   89.954282     -6.3592609      1.2441429     -5.1151181      167.8474       1.3740002    
    558000   91.296655     -6.3777096      1.262709      -5.1150006      162.75302      1.3740002    
    559000   91.29517      -6.3775026      1.2626885     -5.1148141      212.00218      1.3740002    
    560000   96.90161      -6.4553212      1.3402302     -5.115091       18.057969      1.3740002    
    561000   90.312381     -6.3642022      1.2490957     -5.1151065      213.678        1.3740002    
    562000   84.524583     -6.2839355      1.1690456     -5.1148899      363.16858      1.3740002    
    563000   94.442487     -6.4213535      1.3062185     -5.115135      -7.8308242      1.3740002    
    564000   93.662473     -6.4106683      1.2954303     -5.1152381      63.499566      1.3740002    
    565000   89.486542     -6.3526006      1.2376736     -5.114927       109.82704      1.3740002    
    566000   90.628053     -6.3685795      1.2534617     -5.1151178      153.69046      1.3740002    
    567000   96.029422     -6.443336       1.3281671     -5.1151689     -0.92307759     1.3740002    
    568000   87.128774     -6.3201595      1.2050637     -5.1150958      200.83167      1.3740002    
    569000   96.688829     -6.4523832      1.3372873     -5.1150959     -18.295475      1.3740002    
    570000   95.3511       -6.4340182      1.3187854     -5.1152328      132.3642       1.3740002    
    571000   99.001106     -6.4845727      1.369268      -5.1153047      29.906985      1.3740002    
    572000   92.732015     -6.3977311      1.2825612     -5.1151699      118.88012      1.3740002    
    573000   97.175173     -6.4592964      1.3440138     -5.1152825     -14.697828      1.3740002    
    574000   94.363807     -6.4200359      1.3051303     -5.1149056      171.62014      1.3740002    
    575000   89.228426     -6.3490245      1.2341037     -5.1149208      251.68114      1.3740002    
    576000   98.33755      -6.4749993      1.3600905     -5.1149088     -14.842239      1.3740002    
    577000   92.581406     -6.3957267      1.2804782     -5.1152485      129.09485      1.3740002    
    578000   98.069869     -6.4716407      1.3563882     -5.1152525     -12.998591      1.3740002    
    579000   100.02532     -6.4985792      1.3834337     -5.1151455     -139.06987      1.3740002    
    580000   93.959951     -6.414725       1.2995446     -5.1151804      51.195091      1.3740002    
    581000   97.236956     -6.4598509      1.3448683     -5.1149825      3.8723746      1.3740002    
    582000   96.918113     -6.4554547      1.3404585     -5.1149962      29.018623      1.3740002    
    583000   97.36924      -6.4616166      1.3466979     -5.1149187     -23.048259      1.3740002    
    584000   96.30872      -6.4470342      1.3320301     -5.1150041      54.647823      1.3740002    
    585000   94.080797     -6.4157219      1.301216      -5.1145059      214.14761      1.3740002    
    586000   91.281655     -6.3774997      1.2625016     -5.1149982      222.21292      1.3740002    
    587000   87.241779     -6.3215275      1.2066267     -5.1149008      332.83764      1.3740002    
    588000   102.12726     -6.5272438      1.4125054     -5.1147384     -14.845404      1.3740002    
    589000   93.474086     -6.4078869      1.2928247     -5.1150621      146.681        1.3740002    
    590000   94.473345     -6.4217163      1.3066453     -5.115071       93.560977      1.3740002    
    591000   94.02432      -6.4153596      1.3004349     -5.1149247      56.795187      1.3740002    
    592000   90.480251     -6.3664995      1.2514175     -5.115082       133.62647      1.3740002    
    593000   99.275402     -6.4878991      1.3730618     -5.1148374      8.5357286      1.3740002    
    594000   96.58393      -6.4511209      1.3358365     -5.1152845     -26.73603       1.3740002    
    595000   91.366196     -6.3785         1.2636708     -5.1148292      179.33011      1.3740002    
    596000   94.79707      -6.4259331      1.3111227     -5.1148105      19.389097      1.3740002    
    597000   100.50229     -6.5051992      1.3900306     -5.1151686      58.096705      1.3740002    
    598000   101.30307     -6.5162697      1.4011061     -5.1151636     -78.478138      1.3740002    
    599000   93.659523     -6.4104284      1.2953895     -5.115039       148.11039      1.3740002    
    600000   98.801633     -6.481777       1.3665091     -5.1152679     -29.149644      1.3740002    
    601000   104.86271     -6.5653622      1.4503388     -5.1150234     -118.57955      1.3740002    
    602000   99.292902     -6.4881213      1.3733038     -5.1148175     -31.701358      1.3740002    
    603000   94.770639     -6.4256728      1.3107571     -5.1149157      49.316384      1.3740002    
    604000   98.234544     -6.4737806      1.3586658     -5.1151148     -19.993439      1.3740002    
    605000   96.864685     -6.4546175      1.3397195     -5.114898       65.150305      1.3740002    
    606000   95.835808     -6.4404283      1.3254893     -5.114939       90.42669       1.3740002    
    607000   90.231968     -6.3629652      1.2479835     -5.1149817      175.41442      1.3740002    
    608000   95.433369     -6.4349085      1.3199232     -5.1149853      145.4572       1.3740002    
    609000   100.86942     -6.5098302      1.3951084     -5.1147218     -52.258802      1.3740002    
    610000   96.286841     -6.446437       1.3317275     -5.1147095      139.51542      1.3740002    
    611000   87.817834     -6.3295212      1.214594      -5.1149272      221.67199      1.3740002    
    612000   89.907629     -6.3583721      1.2434976     -5.1148745      179.10625      1.3740002    
    613000   92.843708     -6.3992729      1.2841061     -5.1151668      127.22042      1.3740002    
    614000   96.902856     -6.4553409      1.3402475     -5.1150934     -1.5145999      1.3740002    
    615000   91.499374     -6.3804816      1.2655128     -5.1149688      227.61263      1.3740002    
    616000   94.404341     -6.4206448      1.3056909     -5.1149539      48.091636      1.3740002    
    617000   86.879804     -6.3169818      1.2016203     -5.1153616      254.64406      1.3740002    
    618000   88.568768     -6.3397087      1.2249801     -5.1147287      193.68114      1.3740002    
    619000   90.47782      -6.3666997      1.2513839     -5.1153158      167.66998      1.3740002    
    620000   90.21159      -6.3626286      1.2477017     -5.1149269      202.88794      1.3740002    
    621000   93.897687     -6.4136317      1.2986835     -5.1149483      149.84446      1.3740002    
    622000   91.348631     -6.3785671      1.2634279     -5.1151392      75.874876      1.3740002    
    623000   100.34896     -6.5031019      1.38791       -5.115192      -62.541005      1.3740002    
    624000   94.250702     -6.4184981      1.303566      -5.1149321      120.48822      1.3740002    
    625000   91.638934     -6.3823641      1.267443      -5.1149211      105.18936      1.3740002    
    626000   88.23477      -6.3353858      1.2203606     -5.1150252      153.22796      1.3740002    
    627000   94.064024     -6.4162068      1.300984      -5.1152227      59.716377      1.3740002    
    628000   99.064465     -6.4855096      1.3701443     -5.1153653     -73.125557      1.3740002    
    629000   95.858107     -6.441012       1.3257977     -5.1152142      34.608426      1.3740002    
    630000   89.674176     -6.3554619      1.2402688     -5.1151931      209.82317      1.3740002    
    631000   91.49125      -6.3802925      1.2654004     -5.1148921      165.68732      1.3740002    
    632000   92.126948     -6.389317       1.2741927     -5.1151243      114.68791      1.3740002    
    633000   88.614669     -6.3405686      1.2256149     -5.1149536      245.33422      1.3740002    
    634000   85.945602     -6.3033486      1.1886995     -5.1146491      291.25209      1.3740002    
    635000   85.068861     -6.2913182      1.1765734     -5.1147448      352.31717      1.3740002    
    636000   97.526014     -6.4639085      1.3488663     -5.1150422     -27.532224      1.3740002    
    637000   102.03194     -6.5263636      1.4111869     -5.1151767     -113.1797       1.3740002    
    638000   91.069914     -6.3746423      1.259573      -5.1150693      118.85773      1.3740002    
    639000   90.84608      -6.3714313      1.2564772     -5.1149541      170.42696      1.3740002    
    640000   90.664222     -6.369104       1.2539619     -5.1151421      220.06638      1.3740002    
    641000   96.274727     -6.4467758      1.3315599     -5.1152159      67.475379      1.3740002    
    642000   85.795197     -6.3016882      1.1866193     -5.1150689      247.17354      1.3740002    
    643000   95.301558     -6.4334674      1.3181002     -5.1153672      93.601549      1.3740002    
    644000   95.165372     -6.4312896      1.3162166     -5.115073       9.9850507      1.3740002    
    645000   97.530719     -6.4637813      1.3489313     -5.11485        25.799472      1.3740002    
    646000   89.214344     -6.3490151      1.2339089     -5.1151062      199.8001       1.3740002    
    647000   99.624206     -6.4925682      1.377886      -5.1146822     -16.638131      1.3740002    
    648000   93.207423     -6.4038853      1.2891365     -5.1147488      147.34978      1.3740002    
    649000   88.354108     -6.3370904      1.2220111     -5.1150792      242.06715      1.3740002    
    650000   85.372266     -6.2956603      1.1807698     -5.1148905      283.46725      1.3740002    
    651000   87.227687     -6.3212689      1.2064318     -5.1148371      316.67281      1.3740002    
    652000   95.585731     -6.4369853      1.3220305     -5.1149548      76.73103       1.3740002    
    653000   92.902347     -6.3999646      1.2849171     -5.1150476      67.814287      1.3740002    
    654000   90.323465     -6.3641765      1.249249      -5.1149276      171.37201      1.3740002    
    655000   90.361056     -6.3646241      1.2497689     -5.1148552      185.3694       1.3740002    
    656000   101.30284     -6.5162736      1.401103      -5.1151706     -88.080077      1.3740002    
    657000   91.357        -6.3787427      1.2635436     -5.1151991      165.2729       1.3740002    
    658000   88.426112     -6.3378767      1.223007      -5.1148697      150.35806      1.3740002    
    659000   97.148555     -6.4586413      1.3436457     -5.1149956      4.6203351      1.3740002    
    660000   103.04843     -6.5404164      1.425246      -5.1151705     -93.783225      1.3740002    
    661000   92.598793     -6.395975       1.2807187     -5.1152563      145.79703      1.3740002    
    662000   92.416696     -6.3932695      1.2782001     -5.1150693      116.64798      1.3740002    
    663000   100.46898     -6.5042837      1.38957       -5.1147138     -46.393006      1.3740002    
    664000   98.082639     -6.4714445      1.3565649     -5.1148796      143.3928       1.3740002    
    665000   91.716939     -6.3835475      1.2685219     -5.1150256      161.92021      1.3740002    
    666000   94.902619     -6.4276838      1.3125825     -5.1151013      100.2013       1.3740002    
    667000   93.741131     -6.4114292      1.2965182     -5.114911       103.00104      1.3740002    
    668000   96.386017     -6.4481166      1.3330992     -5.1150174      73.217118      1.3740002    
    669000   89.666433     -6.3552399      1.2401617     -5.1150782      103.49566      1.3740002    
    670000   97.000677     -6.4568338      1.3416004     -5.1152334     -20.330117      1.3740002    
    671000   93.577481     -6.4091476      1.2942547     -5.1148929      175.63941      1.3740002    
    672000   95.232424     -6.4321981      1.317144      -5.1150541      53.200959      1.3740002    
    673000   99.024411     -6.48478        1.3695903     -5.1151896     -71.083861      1.3740002    
    674000   99.999889     -6.4981199      1.383082      -5.1150379     -12.497187      1.3740002    
    675000   96.762622     -6.4535299      1.3383079     -5.115222       108.10387      1.3740002    
    676000   85.668352     -6.2997639      1.1848649     -5.114899       298.51982      1.3740002    
    677000   93.182787     -6.4037162      1.2887958     -5.1149204      105.91517      1.3740002    
    678000   82.428033     -6.2551233      1.1400486     -5.1150748      343.72866      1.3740002    
    679000   93.942549     -6.4143232      1.2993039     -5.1150192      68.259936      1.3740002    
    680000   92.399965     -6.3931876      1.2779687     -5.1152188      90.175617      1.3740002    
    681000   89.646394     -6.3552296      1.2398845     -5.115345       201.0435       1.3740002    
    682000   93.402469     -6.4068668      1.2918342     -5.1150326      105.01287      1.3740002    
    683000   96.482945     -6.4495375      1.3344397     -5.1150978     -22.286921      1.3740002    
    684000   97.618765     -6.465427       1.3501491     -5.115278      -22.962116      1.3740002    
    685000   96.518674     -6.4500834      1.3349339     -5.1151495      27.364411      1.3740002    
    686000   93.13041      -6.4027959      1.2880714     -5.1147246      179.01216      1.3740002    
    687000   99.680629     -6.4936243      1.3786664     -5.1149579     -23.09615       1.3740002    
    688000   83.831867     -6.2745323      1.1594648     -5.1150675      325.09048      1.3740002    
    689000   88.023434     -6.3327994      1.2174376     -5.1153618      229.19671      1.3740002    
    690000   94.067339     -6.4158783      1.3010299     -5.1148484      68.816202      1.3740002    
    691000   86.439401     -6.3104573      1.1955291     -5.1149282      253.82618      1.3740002    
    692000   88.419612     -6.3381391      1.2229171     -5.115222       248.71983      1.3740002    
    693000   95.374705     -6.4342674      1.3191119     -5.1151556      170.84051      1.3740002    
    694000   93.011283     -6.4014829      1.2864238     -5.1150591      94.803067      1.3740002    
    695000   99.066741     -6.4849851      1.3701758     -5.1148093     -11.788298      1.3740002    
    696000   90.032137     -6.3603525      1.2452197     -5.1151328      101.42979      1.3740002    
    697000   95.666508     -6.4383348      1.3231477     -5.115187       113.51847      1.3740002    
    698000   85.374967     -6.2959669      1.1808071     -5.1151598      254.62892      1.3740002    
    699000   88.872417     -6.3442371      1.2291798     -5.1150573      273.25323      1.3740002    
    700000   90.805714     -6.371084       1.2559189     -5.1151651      210.02136      1.3740002    
    701000   95.927196     -6.4421277      1.3267533     -5.1153744      9.6250169      1.3740002    
    702000   90.250034     -6.3633134      1.2482334     -5.11508        141.65003      1.3740002    
    703000   96.297647     -6.446611       1.3318769     -5.1147341      55.54388       1.3740002    
    704000   99.759857     -6.4946818      1.3797622     -5.1149196      54.931851      1.3740002    
    705000   91.804588     -6.3848882      1.2697342     -5.1151541      167.94919      1.3740002    
    706000   92.935477     -6.4004327      1.2853753     -5.1150574      155.30345      1.3740002    
    707000   93.535694     -6.4085895      1.2936768     -5.1149127      55.8611        1.3740002    
    708000   94.041061     -6.4156556      1.3006665     -5.1149892      60.350237      1.3740002    
    709000   96.883979     -6.4549417      1.3399864     -5.1149553      79.77863       1.3740002    
    710000   94.839319     -6.4267267      1.311707      -5.1150196      86.978103      1.3740002    
    711000   95.598055     -6.4372746      1.322201      -5.1150737     -8.794789       1.3740002    
    712000   91.277382     -6.37781        1.2624425     -5.1153676      164.79822      1.3740002    
    713000   90.539782     -6.3671359      1.2522408     -5.114895       215.44124      1.3740002    
    714000   94.118698     -6.4165287      1.3017402     -5.1147884      153.68003      1.3740002    
    715000   87.902168     -6.3309285      1.2157604     -5.1151681      252.85872      1.3740002    
    716000   95.643836     -6.4382417      1.3228342     -5.1154075     -18.397776      1.3740002    
    717000   96.666761     -6.4522302      1.3369821     -5.1152481      8.8230744      1.3740002    
    718000   97.367596     -6.4618434      1.3466752     -5.1151682      8.8454351      1.3740002    
    719000   93.986421     -6.4151558      1.2999107     -5.1152451      67.561833      1.3740002    
    720000   101.56986     -6.5199173      1.404796      -5.1151213      41.197976      1.3740002    
    721000   90.625735     -6.3683873      1.2534296     -5.1149577      227.57086      1.3740002    
    722000   98.810034     -6.4815771      1.3666253     -5.1149518     -16.206253      1.3740002    
    723000   95.931573     -6.4417152      1.3268138     -5.1149014      24.973102      1.3740002    
    724000   89.590945     -6.3543952      1.2391176     -5.1152776      156.91389      1.3740002    
    725000   86.307862     -6.3086866      1.1937098     -5.1149768      241.3747       1.3740002    
    726000   97.051141     -6.4572134      1.3422984     -5.114915       28.613274      1.3740002    
    727000   92.748877     -6.3979079      1.2827945     -5.1151134      141.99638      1.3740002    
    728000   94.31733      -6.4194068      1.3044875     -5.1149193      74.673506      1.3740002    
    729000   100.08453     -6.4993942      1.3842527     -5.1151416     -27.637783      1.3740002    
    730000   93.974014     -6.4148694      1.2997391     -5.1151303      122.12317      1.3740002    
    731000   95.15271      -6.4310894      1.3160415     -5.1150479      114.16386      1.3740002    
    732000   98.390085     -6.4761922      1.3608171     -5.1153752     -26.994577      1.3740002    
    733000   92.898382     -6.4002955      1.2848622     -5.1154332      96.453369      1.3740002    
    734000   101.22756     -6.5152896      1.4000618     -5.1152279     -82.716547      1.3740002    
    735000   103.07697     -6.5406033      1.4256406     -5.1149627     -102.90892      1.3740002    
    736000   104.94249     -6.5663792      1.4514423     -5.1149369     -141.16346      1.3740002    
    737000   103.29299     -6.5437001      1.4286283     -5.1150718     -117.68259      1.3740002    
    738000   93.434186     -6.4072232      1.2922729     -5.1149503      91.412157      1.3740002    
    739000   94.547271     -6.4229767      1.3076678     -5.115309       26.617819      1.3740002    
    740000   94.54174      -6.4227181      1.3075913     -5.1151268      80.102801      1.3740002    
    741000   95.287955     -6.432895       1.317912      -5.114983       50.655681      1.3740002    
    742000   98.702993     -6.4802625      1.3651449     -5.1151176     -48.986094      1.3740002    
    743000   90.244418     -6.3633824      1.2481557     -5.1152267      263.43516      1.3740002    
    744000   90.673893     -6.3691147      1.2540957     -5.115019       214.50111      1.3740002    
    745000   98.470685     -6.4770106      1.3619318     -5.1150788     -11.417322      1.3740002    
    746000   95.927739     -6.441478       1.3267608     -5.1147172      49.310305      1.3740002    
    747000   86.646089     -6.3133887      1.1983878     -5.1150009      339.86082      1.3740002    
    748000   92.936366     -6.400377       1.2853876     -5.1149894      137.14562      1.3740002    
    749000   89.804596     -6.3572016      1.2420726     -5.115129       241.84027      1.3740002    
    750000   92.736785     -6.3977353      1.2826272     -5.1151081      159.67408      1.3740002    
    751000   93.239592     -6.4048424      1.2895815     -5.1152609      94.064555      1.3740002    
    752000   99.553926     -6.492046       1.376914      -5.115132       42.937988      1.3740002    
    753000   89.779137     -6.3567389      1.2417205     -5.1150184      250.36291      1.3740002    
    754000   102.11387     -6.5275796      1.4123201     -5.1152595     -29.088877      1.3740002    
    755000   94.82955      -6.4266065      1.3115719     -5.1150346      51.859082      1.3740002    
    756000   95.430255     -6.4348915      1.3198802     -5.1150113      16.130008      1.3740002    
    757000   89.831124     -6.3575299      1.2424395     -5.1150905      174.94835      1.3740002    
    758000   96.716219     -6.4527977      1.3376661     -5.1151315     -30.507058      1.3740002    
    759000   89.540112     -6.3535951      1.2384146     -5.1151806      160.68432      1.3740002    
    760000   92.765647     -6.3980111      1.2830264     -5.1149847      52.00627       1.3740002    
    761000   100.38567     -6.5035183      1.3884176     -5.1151007     -40.877562      1.3740002    
    762000   94.181692     -6.4174039      1.3026115     -5.1147925      30.906582      1.3740002    
    763000   100.67403     -6.5074076      1.392406      -5.1150016     -24.976244      1.3740002    
    764000   95.374976     -6.4341034      1.3191156     -5.1149878      136.45537      1.3740002    
    765000   99.834431     -6.4958192      1.3807936     -5.1150256     -61.14556       1.3740002    
    766000   94.615644     -6.423626       1.3086134     -5.1150125      87.418045      1.3740002    
[...]
   4816000   96.150685     -6.4448         1.3298443     -5.1149557      38.390001      1.3740002    
   4817000   95.480363     -6.435534       1.3205732     -5.1149609      100.23218      1.3740002    
   4818000   92.55125      -6.3948688      1.2800611     -5.1148077      171.22087      1.3740002    
   4819000   97.256103     -6.4600032      1.3451332     -5.11487        13.20764       1.3740002    
   4820000   95.909951     -6.4415916      1.3265148     -5.1150768      32.833454      1.3740002    
   4821000   95.948082     -6.4421868      1.3270421     -5.1151446     -64.96432       1.3740002    
   4822000   88.85687      -6.3438842      1.2289648     -5.1149194      225.2401       1.3740002    
   4823000   94.969194     -6.4281414      1.3135033     -5.1146381      71.014777      1.3740002    
   4824000   95.17943      -6.4313455      1.316411      -5.1149344      86.486512      1.3740002    
   4825000   99.078829     -6.4853552      1.370343      -5.1150122     -30.887037      1.3740002    
   4826000   88.989224     -6.3457476      1.2307953     -5.1149523      221.28359      1.3740002    
   4827000   93.6747       -6.4103349      1.2955994     -5.1147356      217.11463      1.3740002    
   4828000   99.072517     -6.4854242      1.3702557     -5.1151685      22.184699      1.3740002    
   4829000   99.120535     -6.485696       1.3709198     -5.1147762     -13.08182       1.3740002    
   4830000   97.389357     -6.4620816      1.3469762     -5.1151054      16.819232      1.3740002    
   4831000   89.812655     -6.3573936      1.2421841     -5.1152096      195.08041      1.3740002    
   4832000   86.59331      -6.3124447      1.1976578     -5.1147869      208.86716      1.3740002    
   4833000   102.41538     -6.5314624      1.4164903     -5.1149721     -89.702749      1.3740002    
   4834000   82.396146     -6.2548689      1.1396075     -5.1152613      310.92702      1.3740002    
   4835000   89.078459     -6.3471077      1.2320295     -5.1150782      174.93084      1.3740002    
   4836000   97.438535     -6.4627518      1.3476564     -5.1150955      64.016507      1.3740002    
   4837000   91.237521     -6.3767773      1.2618911     -5.1148861      124.63494      1.3740002    
   4838000   92.955166     -6.4006343      1.2856476     -5.1149867      93.047745      1.3740002    
   4839000   98.774771     -6.4809967      1.3661376     -5.1148591      9.6573559      1.3740002    
   4840000   88.310843     -6.3364853      1.2214127     -5.1150726      290.89477      1.3740002    
   4841000   91.935854     -6.3862605      1.2715497     -5.1147108      99.145484      1.3740002    
   4842000   93.401184     -6.4067849      1.2918164     -5.1149685      126.46438      1.3740002    
   4843000   90.668592     -6.3688187      1.2540224     -5.1147963      236.63443      1.3740002    
   4844000   86.978125     -6.3179142      1.2029801     -5.1149341      208.87003      1.3740002    
   4845000   93.863369     -6.4131116      1.2982088     -5.1149028      20.451978      1.3740002    
   4846000   91.8666       -6.3855632      1.2705918     -5.1149714      127.98651      1.3740002    
   4847000   91.490055     -6.3803893      1.2653839     -5.1150054      99.854325      1.3740002    
   4848000   90.007012     -6.3600326      1.2448722     -5.1151604      148.72472      1.3740002    
   4849000   92.512653     -6.3945703      1.2795273     -5.115043       150.70445      1.3740002    
   4850000   96.1          -6.4441694      1.3291433     -5.1150261      49.356695      1.3740002    
   4851000   92.511641     -6.3943676      1.2795133     -5.1148544      161.92088      1.3740002    
   4852000   97.061207     -6.4573413      1.3424376     -5.1149037      3.7811204      1.3740002    
   4853000   97.499219     -6.4638289      1.3484957     -5.1153333      68.305196      1.3740002    
   4854000   96.353232     -6.4480786      1.3326457     -5.1154329     -7.1359352      1.3740002    
   4855000   100.85308     -6.5097484      1.3948824     -5.114866      -30.327697      1.3740002    
   4856000   88.142605     -6.3340227      1.2190859     -5.1149369      302.25162      1.3740002    
   4857000   92.364578     -6.3923032      1.2774793     -5.1148239      117.88583      1.3740002    
   4858000   93.244368     -6.4044639      1.2896475     -5.1148164      126.48804      1.3740002    
   4859000   98.771477     -6.4811942      1.3660921     -5.1151022      21.722892      1.3740002    
   4860000   91.224054     -6.376649       1.2617049     -5.1149441      134.13061      1.3740002    
   4861000   97.060231     -6.4573107      1.3424241     -5.1148866      57.174842      1.3740002    
   4862000   98.315858     -6.4749249      1.3597905     -5.1151344     -6.6454037      1.3740002    
   4863000   94.569381     -6.4228376      1.3079736     -5.1148641      94.385812      1.3740002    
   4864000   96.041301     -6.4433276      1.3283314     -5.1149962      134.99396      1.3740002    
   4865000   98.451257     -6.4767457      1.3616631     -5.1150825     -17.437948      1.3740002    
   4866000   96.950337     -6.4558861      1.3409042     -5.1149819      69.702734      1.3740002    
   4867000   97.083949     -6.4577336      1.3427521     -5.1149815      115.70442      1.3740002    
   4868000   97.188206     -6.4594408      1.3441941     -5.1152467      26.754763      1.3740002    
   4869000   99.702154     -6.4940169      1.3789641     -5.1150528     -42.189667      1.3740002    
   4870000   93.235726     -6.4046507      1.289528      -5.1151227      80.729612      1.3740002    
   4871000   86.272055     -6.3080431      1.1932146     -5.1148285      302.46561      1.3740002    
   4872000   102.21133     -6.5289421      1.4136681     -5.115274      -101.52517      1.3740002    
   4873000   90.765611     -6.3704743      1.2553642     -5.1151101      137.3775       1.3740002    
   4874000   89.080681     -6.3470011      1.2320602     -5.1149409      138.94016      1.3740002    
   4875000   89.807375     -6.3568717      1.242111      -5.1147607      229.9089       1.3740002    
   4876000   92.114921     -6.3887264      1.2740263     -5.1147001      181.54737      1.3740002    
   4877000   96.012354     -6.4429627      1.3279311     -5.1150316      134.19409      1.3740002    
   4878000   91.637007     -6.382368       1.2674164     -5.1149517      166.41976      1.3740002    
   4879000   90.564737     -6.3678523      1.252586      -5.1152663      191.41637      1.3740002    
   4880000   83.741318     -6.2735657      1.1582124     -5.1153533      289.02545      1.3740002    
   4881000   94.646261     -6.4242303      1.3090369     -5.1151934      22.744643      1.3740002    
   4882000   101.51479     -6.5192102      1.4040344     -5.1151758     -103.97925      1.3740002    
   4883000   91.060377     -6.3745777      1.2594411     -5.1151366      77.054596      1.3740002    
   4884000   91.263712     -6.3770992      1.2622534     -5.1148458      192.20386      1.3740002    
   4885000   94.274108     -6.4189259      1.3038897     -5.1150362      110.50978      1.3740002    
   4886000   93.494745     -6.4083541      1.2931104     -5.1152437      47.780481      1.3740002    
   4887000   89.738114     -6.3559163      1.2411531     -5.1147632      218.76522      1.3740002    
   4888000   92.696738     -6.3970733      1.2820733     -5.1149999      135.4903       1.3740002    
   4889000   105.22082     -6.5704318      1.4552919     -5.1151399     -205.91134      1.3740002    
   4890000   90.928721     -6.3726905      1.2576202     -5.1150703      243.33653      1.3740002    
   4891000   97.482755     -6.463368       1.3482679     -5.1151         48.058368      1.3740002    
   4892000   81.49241      -6.2421996      1.1271081     -5.1150915      336.13417      1.3740002    
   4893000   98.96421      -6.4839302      1.3687577     -5.1151725     -34.407837      1.3740002    
   4894000   92.564801     -6.395234       1.2802485     -5.1149854      49.380816      1.3740002    
   4895000   92.154509     -6.3895033      1.2745739     -5.1149295      100.20869      1.3740002    
   4896000   88.531868     -6.3397627      1.2244697     -5.115293       210.16662      1.3740002    
   4897000   100.23879     -6.5015199      1.3863862     -5.1151337     -30.958768      1.3740002    
   4898000   101.86687     -6.5241758      1.4089039     -5.115272      -100.41009      1.3740002    
   4899000   90.995894     -6.3735403      1.2585492     -5.114991       167.73071      1.3740002    
   4900000   95.153353     -6.4309966      1.3160504     -5.1149462      133.74371      1.3740002    
   4901000   89.5167       -6.3530138      1.2380907     -5.114923       179.48663      1.3740002    
   4902000   86.321782     -6.3088906      1.1939024     -5.1149882      391.64238      1.3740002    
   4903000   102.73497     -6.5358084      1.4209105     -5.1148979     -71.856253      1.3740002    
   4904000   96.456219     -6.4491039      1.3340701     -5.1150338      15.196695      1.3740002    
   4905000   92.345176     -6.3924069      1.2772109     -5.115196       146.57089      1.3740002    
   4906000   88.255417     -6.3356073      1.2206462     -5.1149611      209.28083      1.3740002    
   4907000   87.454887     -6.324705       1.2095742     -5.1151308      205.85475      1.3740002    
   4908000   91.498722     -6.3805126      1.2655038     -5.1150088      155.80712      1.3740002    
   4909000   87.327768     -6.3229465      1.207816      -5.1151305      209.32056      1.3740002    
   4910000   96.249874     -6.4462551      1.3312162     -5.1150389      23.654896      1.3740002    
   4911000   92.632503     -6.3964286      1.2811849     -5.1152437      81.602137      1.3740002    
   4912000   97.172195     -6.4592403      1.3439726     -5.1152677      37.503193      1.3740002    
   4913000   90.539473     -6.3671339      1.2522366     -5.1148974      209.63537      1.3740002    
   4914000   103.95397     -6.5530294      1.4377703     -5.1152591     -81.162103      1.3740002    
   4915000   92.514667     -6.3947232      1.2795551     -5.115168       22.265042      1.3740002    
   4916000   94.384304     -6.4207167      1.3054138     -5.1153029      70.707525      1.3740002    
   4917000   95.825042     -6.4406905      1.3253404     -5.1153501      7.261692       1.3740002    
   4918000   100.17244     -6.5005379      1.3854685     -5.1150694     -9.8142901      1.3740002    
   4919000   91.153755     -6.3759268      1.2607326     -5.1151942      103.37678      1.3740002    
   4920000   96.187166     -6.4451853      1.3303489     -5.1148364      109.37164      1.3740002    
   4921000   83.89808      -6.2757468      1.1603805     -5.1153662      286.77315      1.3740002    
   4922000   84.735734     -6.2870456      1.171966      -5.1150796      311.92173      1.3740002    
   4923000   92.928499     -6.4005176      1.2852788     -5.1152388      106.15317      1.3740002    
   4924000   96.891612     -6.4552306      1.340092      -5.1151386      48.439053      1.3740002    
   4925000   94.865989     -6.4272728      1.3120759     -5.1151969      147.99239      1.3740002    
   4926000   90.547351     -6.3673443      1.2523455     -5.1149988      200.36238      1.3740002    
   4927000   96.044393     -6.4434993      1.3283742     -5.1151251      98.186052      1.3740002    
   4928000   92.014447     -6.3875413      1.2726367     -5.1149046      135.63536      1.3740002    
   4929000   86.507625     -6.311836       1.1964727     -5.1153633      230.41149      1.3740002    
   4930000   98.47936      -6.4768887      1.3620518     -5.1148368     -21.453936      1.3740002    
   4931000   97.417254     -6.461981       1.347362      -5.114619       63.627818      1.3740002    
   4932000   94.281512     -6.4190564      1.3039921     -5.1150643      114.5631       1.3740002    
   4933000   89.221123     -6.3490334      1.2340027     -5.1150307      160.79034      1.3740002    
   4934000   93.581933     -6.4093679      1.2943163     -5.1150516      103.00119      1.3740002    
   4935000   87.574586     -6.3260562      1.2112297     -5.1148265      235.45962      1.3740002    
   4936000   91.452357     -6.3797343      1.2648625     -5.1148717      107.90081      1.3740002    
   4937000   94.097559     -6.4163618      1.3014479     -5.114914       75.314465      1.3740002    
   4938000   99.316974     -6.4887166      1.3736367     -5.1150798      87.380463      1.3740002    
   4939000   96.883805     -6.4550264      1.339984      -5.1150425      8.1021366      1.3740002    
   4940000   94.219613     -6.4183763      1.303136      -5.1152403      90.325715      1.3740002    
   4941000   97.266922     -6.4605396      1.3452828     -5.1152568     -92.006435      1.3740002    
   4942000   92.873926     -6.3994753      1.284524      -5.1149513      127.00795      1.3740002    
   4943000   96.286254     -6.4467089      1.3317193     -5.1149896      40.910507      1.3740002    
   4944000   96.078788     -6.4437612      1.3288499     -5.1149113      39.874606      1.3740002    
   4945000   90.797281     -6.370959       1.2558023     -5.1151567      202.13133      1.3740002    
   4946000   97.667042     -6.4662133      1.3508168     -5.1153965     -41.811436      1.3740002    
   4947000   92.419532     -6.3931644      1.2782393     -5.1149251      161.31337      1.3740002    
   4948000   91.175213     -6.3760589      1.2610294     -5.1150295      106.9036       1.3740002    
   4949000   92.602064     -6.3958147      1.2807639     -5.1150508      139.53731      1.3740002    
   4950000   94.076167     -6.4162853      1.301152      -5.1151333      141.93409      1.3740002    
   4951000   90.83689      -6.3713096      1.2563501     -5.1149595      176.86695      1.3740002    
   4952000   97.117914     -6.4582363      1.3432219     -5.1150144     -32.69954       1.3740002    
   4953000   94.247685     -6.4184317      1.3035242     -5.1149075      90.016385      1.3740002    
   4954000   91.914562     -6.3862713      1.2712552     -5.1150161      134.14068      1.3740002    
   4955000   95.144072     -6.4311724      1.315922      -5.1152504      40.880769      1.3740002    
   4956000   95.021505     -6.4291956      1.3142268     -5.1149688      68.470665      1.3740002    
   4957000   94.382888     -6.4202346      1.3053942     -5.1148404      148.5379       1.3740002    
   4958000   89.348519     -6.3508283      1.2357647     -5.1150636      206.11188      1.3740002    
   4959000   85.508223     -6.2976693      1.1826502     -5.1150191      309.09137      1.3740002    
   4960000   94.085629     -6.4164279      1.3012829     -5.115145       100.38442      1.3740002    
   4961000   98.635411     -6.4790637      1.3642101     -5.1148535     -18.149628      1.3740002    
   4962000   98.458194     -6.4767591      1.3617591     -5.115         -71.763842      1.3740002    
   4963000   97.561007     -6.4646965      1.3493502     -5.1153462      2.3816027      1.3740002    
   4964000   88.181218     -6.3345973      1.2196199     -5.1149774      242.78208      1.3740002    
   4965000   93.338964     -6.4061619      1.2909559     -5.1152061     -17.390226      1.3740002    
   4966000   97.238291     -6.4600922      1.3448868     -5.1152054     -3.2639857      1.3740002    
   4967000   93.340023     -6.4060637      1.2909705     -5.1150932      125.61999      1.3740002    
   4968000   98.982772     -6.484487       1.3690144     -5.1154725     -8.0430258      1.3740002    
   4969000   89.726937     -6.3557788      1.2409985     -5.1147803      169.22009      1.3740002    
   4970000   94.485575     -6.4220192      1.3068144     -5.1152048      124.81049      1.3740002    
   4971000   95.945635     -6.4418054      1.3270083     -5.1147972      74.510897      1.3740002    
   4972000   103.99408     -6.5532052      1.438325      -5.1148802     -142.37542      1.3740002    
   4973000   96.423467     -6.4484618      1.3336171     -5.1148447      124.48767      1.3740002    
   4974000   100.23367     -6.5010281      1.3863154     -5.1147127      43.870715      1.3740002    
   4975000   95.776908     -6.4396265      1.3246747     -5.1149519      58.00146       1.3740002    
   4976000   91.188266     -6.3758625      1.2612099     -5.1146526      200.13068      1.3740002    
   4977000   100.7082      -6.5077152      1.3928786     -5.1148366     -108.91842      1.3740002    
   4978000   99.382623     -6.4896184      1.3745447     -5.1150737      7.0016374      1.3740002    
   4979000   91.000189     -6.3734254      1.2586086     -5.1148167      241.51937      1.3740002    
   4980000   93.140448     -6.4031169      1.2882102     -5.1149067      179.32755      1.3740002    
   4981000   95.851562     -6.4407716      1.3257072     -5.1150644      70.031513      1.3740002    
   4982000   93.922701     -6.4139522      1.2990294     -5.1149227      125.3666       1.3740002    
   4983000   100.46154     -6.5046555      1.389467      -5.1151885     -56.417378      1.3740002    
   4984000   98.750646     -6.481031       1.3658039     -5.1152271     -58.378928      1.3740002    
   4985000   88.774462     -6.3428932      1.227825      -5.1150683      173.41804      1.3740002    
   4986000   92.374051     -6.3926421      1.2776103     -5.1150318      136.52528      1.3740002    
   4987000   95.308703     -6.4328764      1.318199      -5.1146774      144.56912      1.3740002    
   4988000   94.10957      -6.4165823      1.301614      -5.1149683      46.875412      1.3740002    
   4989000   88.005777     -6.3321184      1.2171934     -5.114925       181.62952      1.3740002    
   4990000   96.183248     -6.4450186      1.3302947     -5.1147239      46.851198      1.3740002    
   4991000   95.773728     -6.4396774      1.3246307     -5.1150467      67.207645      1.3740002    
   4992000   89.800717     -6.3570867      1.2420189     -5.1150678      248.71686      1.3740002    
   4993000   102.6947      -6.5355812      1.4203535     -5.1152277     -17.081861      1.3740002    
   4994000   89.281819     -6.3498996      1.2348421     -5.1150574      231.43009      1.3740002    
   4995000   88.866076     -6.3443105      1.2290921     -5.1152184      115.70209      1.3740002    
   4996000   90.621517     -6.3686432      1.2533713     -5.1152719      188.95343      1.3740002    
   4997000   97.630538     -6.4655751      1.3503119     -5.1152632      57.838497      1.3740002    
   4998000   91.708799     -6.3832883      1.2684093     -5.114879       147.35379      1.3740002    
   4999000   92.47493      -6.3940021      1.2790055     -5.1149965      84.589894      1.3740002    
   5000000   95.389487     -6.4342291      1.3193163     -5.1149128      84.892974      1.3740002    
Loop time of 7297.17 on 1 procs for 5000000 steps with 108 atoms

Performance: 59.201 ns/day, 0.405 hours/ns, 685.197 timesteps/s
99.5% CPU use with 1 MPI tasks x 1 OpenMP threads

MPI task timing breakdown:
Section |  min time  |  avg time  |  max time  |%varavg| %total
---------------------------------------------------------------
Pair    | 3284.8     | 3284.8     | 3284.8     |   0.0 | 45.01
Neigh   | 516.88     | 516.88     | 516.88     |   0.0 |  7.08
Comm    | 215.35     | 215.35     | 215.35     |   0.0 |  2.95
Output  | 1.4568     | 1.4568     | 1.4568     |   0.0 |  0.02
Modify  | 3256       | 3256       | 3256       |   0.0 | 44.62
Other   |            | 22.69      |            |       |  0.31

Nlocal:            108 ave         108 max         108 min
Histogram: 1 0 0 0 0 0 0 0 0 0
Nghost:           2092 ave        2092 max        2092 min
Histogram: 1 0 0 0 0 0 0 0 0 0
Neighs:          16105 ave       16105 max       16105 min
Histogram: 1 0 0 0 0 0 0 0 0 0

Total # of neighbors = 16105
Ave neighs/atom = 149.12037
Neighbor list builds = 500000
Dangerous builds not checked
Total wall time: 2:01:37
