LAMMPS (15 Sep 2022)
OMP_NUM_THREADS environment is not set. Defaulting to 1 thread. (src/comm.cpp:98)
  using 1 OpenMP thread(s) per MPI task
variable T equal 94.0

units metal
boundary p p p
atom_style atomic

read_data nve.lmp
Reading data file ...
  orthogonal box = (0 0 0) to (23.1206 23.1206 23.1206)
  1 by 1 by 1 MPI processor grid
  reading atoms ...
  256 atoms
  reading velocities ...
  256 velocities
  read_data CPU = 0.047 seconds

neighbor 0.1 bin
neigh_modify delay 10 check no

pair_style lj/cut 15.0
pair_coeff 1 1 0.0103 3.405 15.0

thermo 1000
thermo_style custom step temp pe ke etotal press density

# Calculate the kinetic energy
compute g2 all rdf 1000
fix 1 all nve
fix temp_1 all ave/time 1 10000 10000 c_thermo_temp file temp.dat
fix g2_1 all ave/time 1 5000000 5000000 c_g2[*] file rdf.dat mode vector

dump 1 all custom 1000 argon.dump id type x y z vx vy vz

run 5000000
Generated 0 of 0 mixed pair_coeff terms from geometric mixing rule
Neighbor list info ...
  update: every = 1 steps, delay = 10 steps, check = no
  max neighbors/atom: 2000, page size: 100000
  master list distance cutoff = 15.1
  ghost atom cutoff = 15.1
  binsize = 7.55, bins = 4 4 4
  2 neighbor lists, perpetual/occasional/extra = 1 1 0
  (1) pair lj/cut, perpetual
      attributes: half, newton on
      pair build: half/bin/atomonly/newton
      stencil: half/bin/3d
      bin: standard
  (2) compute rdf, occasional, copy from (1)
      attributes: half, newton on
      pair build: copy
      stencil: none
      bin: none
Per MPI rank memory allocation (min/avg/max) = 3.956 | 3.956 | 3.956 Mbytes
   Step          Temp          PotEng         KinEng         TotEng         Press         Density    
         0   94.000751     -15.191308      3.0983904     -12.092918      142.00676      1.3740002    
      1000   95.464376     -15.239814      3.1466335     -12.09318       68.53086       1.3740002    
      2000   94.35323      -15.203482      3.1100086     -12.093473      80.917374      1.3740002    
      3000   92.234068     -15.133406      3.0401582     -12.093248      174.30064      1.3740002    
      4000   91.873148     -15.121201      3.0282618     -12.092939      211.35786      1.3740002    
      5000   95.467066     -15.239813      3.1467221     -12.093091      67.575489      1.3740002    
      6000   97.826837     -15.317612      3.2245034     -12.093108      55.694819      1.3740002    
      7000   95.340703     -15.235927      3.142557      -12.09337       100.77658      1.3740002    
      8000   89.127239     -15.030824      2.9377529     -12.093071      295.26551      1.3740002    
      9000   97.367737     -15.30261       3.2093708     -12.093239      38.690267      1.3740002    
     10000   90.90138      -15.089656      2.996231      -12.093425      228.55481      1.3740002    
     11000   97.939605     -15.321369      3.2282203     -12.093149      62.974392      1.3740002    
     12000   94.068443     -15.193405      3.1006217     -12.092783      129.81931      1.3740002    
     13000   92.261613     -15.133793      3.0410661     -12.092727      155.5111       1.3740002    
     14000   96.251872     -15.265738      3.1725904     -12.093148      21.569735      1.3740002    
     15000   91.919771     -15.12287       3.0297985     -12.093071      163.51255      1.3740002    
     16000   91.60886      -15.112583      3.0195505     -12.093032      159.97776      1.3740002    
     17000   94.700961     -15.214362      3.1214703     -12.092892      89.866648      1.3740002    
     18000   90.639448     -15.080728      2.9875974     -12.093131      161.25961      1.3740002    
     19000   97.372678     -15.302662      3.2095336     -12.093128      15.171563      1.3740002    
     20000   88.254729     -15.001965      2.9089939     -12.092971      239.80647      1.3740002    
     21000   93.084613     -15.161216      3.0681933     -12.093023      192.78454      1.3740002    
     22000   97.046965     -15.291883      3.1987977     -12.093085      112.44314      1.3740002    
     23000   90.437122     -15.073883      2.9809284     -12.092954      180.69905      1.3740002    
     24000   92.77846      -15.151138      3.0581021     -12.093036      199.45918      1.3740002    
     25000   91.363778     -15.104831      3.0114723     -12.093358      165.08833      1.3740002    
     26000   91.976532     -15.124949      3.0316695     -12.09328       202.11802      1.3740002    
     27000   92.998683     -15.158547      3.0653609     -12.093186      144.39114      1.3740002    
     28000   96.1503       -15.262227      3.1692424     -12.092985      132.48877      1.3740002    
     29000   95.253786     -15.232772      3.1396921     -12.09308       112.19873      1.3740002    
     30000   93.50297      -15.174969      3.0819829     -12.092987      100.9493       1.3740002    
     31000   95.553051     -15.242862      3.1495563     -12.093305      66.855807      1.3740002    
     32000   98.114352     -15.326759      3.2339802     -12.092779      78.443755      1.3740002    
     33000   94.912096     -15.221758      3.1284296     -12.093328      146.80344      1.3740002    
     34000   93.763438     -15.183943      3.0905683     -12.093375      154.33235      1.3740002    
     35000   93.356922     -15.170504      3.0771689     -12.093335      121.87233      1.3740002    
     36000   91.635731     -15.113784      3.0204362     -12.093348      119.56669      1.3740002    
     37000   95.97721      -15.256606      3.1635371     -12.093068      87.286353      1.3740002    
     38000   102.74002     -15.479499      3.3864485     -12.093051     -88.010483      1.3740002    
     39000   93.888494     -15.188017      3.0946903     -12.093327      138.9732       1.3740002    
     40000   93.915497     -15.188784      3.0955803     -12.093204      150.93985      1.3740002    
     41000   90.833823     -15.087152      2.9940043     -12.093147      232.17838      1.3740002    
     42000   97.129724     -15.294364      3.2015256     -12.092838      74.941488      1.3740002    
     43000   94.770896     -15.216862      3.1237754     -12.093086      144.65843      1.3740002    
     44000   93.613522     -15.178743      3.0856268     -12.093116      132.72639      1.3740002    
     45000   94.481338     -15.207286      3.1142312     -12.093055      136.33455      1.3740002    
     46000   97.951943     -15.321626      3.228627      -12.092999      8.3560485      1.3740002    
     47000   89.014953     -15.026956      2.9340519     -12.092904      209.53305      1.3740002    
     48000   93.074432     -15.160919      3.0678577     -12.093061      199.64846      1.3740002    
     49000   92.792756     -15.151904      3.0585733     -12.093331      163.37493      1.3740002    
     50000   91.628746     -15.113588      3.020206      -12.093382      188.97315      1.3740002    
     51000   98.994405     -15.355941      3.262988      -12.092953     -18.299324      1.3740002    
     52000   96.610882     -15.277304      3.1844238     -12.092881      67.288395      1.3740002    
     53000   93.05545      -15.160399      3.067232      -12.093167      105.04407      1.3740002    
     54000   92.053308     -15.127387      3.0342001     -12.093187      172.54178      1.3740002    
     55000   97.227691     -15.298068      3.2047547     -12.093313      67.983495      1.3740002    
     56000   92.77708      -15.151154      3.0580566     -12.093097      173.16055      1.3740002    
     57000   93.404697     -15.17146       3.0787437     -12.092716      148.29784      1.3740002    
     58000   96.030343     -15.258725      3.1652885     -12.093436      68.09152       1.3740002    
     59000   98.462599     -15.338384      3.2454589     -12.092925      28.462312      1.3740002    
     60000   93.487052     -15.174696      3.0814582     -12.093238      118.47844      1.3740002    
     61000   94.858682     -15.219838      3.126669      -12.093169      86.379663      1.3740002    
     62000   99.675817     -15.378823      3.2854482     -12.093375      27.689368      1.3740002    
     63000   89.597561     -15.046152      2.9532554     -12.092897      214.53251      1.3740002    
     64000   97.697144     -15.313784      3.2202285     -12.093556      28.128066      1.3740002    
     65000   90.247851     -15.068113      2.9746898     -12.093423      204.04852      1.3740002    
     66000   90.618293     -15.079897      2.9869001     -12.092997      230.91793      1.3740002    
     67000   100.0013      -15.389668      3.2961767     -12.093491      49.996428      1.3740002    
     68000   94.419121     -15.205285      3.1121805     -12.093104      110.55157      1.3740002    
     69000   96.631987     -15.278672      3.1851195     -12.093552      122.01501      1.3740002    
     70000   95.987491     -15.257093      3.163876      -12.093217      111.58341      1.3740002    
     71000   95.125218     -15.228624      3.1354544     -12.093169      125.34284      1.3740002    
     72000   92.4356       -15.139627      3.046801      -12.092826      141.46923      1.3740002    
     73000   95.13203      -15.228542      3.1356789     -12.092863      196.43575      1.3740002    
     74000   92.473258     -15.140916      3.0480422     -12.092874      166.91703      1.3740002    
     75000   97.376541     -15.303008      3.209661      -12.093347      107.93785      1.3740002    
     76000   92.10543      -15.129123      3.0359181     -12.093205      169.9047       1.3740002    
     77000   93.410141     -15.172113      3.0789231     -12.09319       147.64407      1.3740002    
     78000   89.0606       -15.028227      2.9355565     -12.09267       220.32542      1.3740002    
     79000   92.876673     -15.154552      3.0613393     -12.093213      218.294        1.3740002    
     80000   92.419744     -15.139417      3.0462783     -12.093139      180.11373      1.3740002    
     81000   92.588715     -15.144807      3.0518479     -12.092959      123.03547      1.3740002    
     82000   95.884279     -15.253887      3.160474      -12.093413      104.17447      1.3740002    
     83000   96.009108     -15.258285      3.1645886     -12.093696      93.669048      1.3740002    
     84000   96.871676     -15.286424      3.19302       -12.093404      58.336423      1.3740002    
     85000   92.784755     -15.151165      3.0583096     -12.092856      203.27479      1.3740002    
     86000   90.148461     -15.064632      2.9714138     -12.093218      306.87298      1.3740002    
     87000   91.070716     -15.09483       3.0018126     -12.093017      227.61915      1.3740002    
     88000   98.497296     -15.339826      3.2466026     -12.093223      20.976536      1.3740002    
     89000   92.842649     -15.153273      3.0602178     -12.093056      189.34215      1.3740002    
     90000   88.363017     -15.005677      2.9125632     -12.093114      333.47462      1.3740002    
     91000   92.695821     -15.148776      3.0553782     -12.093398      168.61977      1.3740002    
     92000   96.175885     -15.263043      3.1700857     -12.092957      120.04741      1.3740002    
     93000   93.240994     -15.166748      3.0733478     -12.0934        127.6513       1.3740002    
     94000   97.722631     -15.31439       3.2210686     -12.093321      77.355257      1.3740002    
     95000   99.272927     -15.365683      3.2721684     -12.093515      49.051428      1.3740002    
     96000   94.593174     -15.211149      3.1179175     -12.093231      127.71285      1.3740002    
     97000   90.955052     -15.090978      2.9980001     -12.092978      186.97801      1.3740002    
     98000   96.250398     -15.265288      3.1725418     -12.092746      106.36045      1.3740002    
     99000   93.2469       -15.166743      3.0735425     -12.0932        100.88765      1.3740002    
    100000   92.997108     -15.158439      3.065309      -12.09313       112.87033      1.3740002    
    101000   94.119792     -15.195782      3.1023142     -12.093468      96.365562      1.3740002    
    102000   93.497415     -15.174929      3.0817998     -12.093129      193.29171      1.3740002    
    103000   90.655801     -15.0818        2.9881364     -12.093664      251.76281      1.3740002    
    104000   95.779428     -15.250231      3.157018      -12.093213      68.644314      1.3740002    
    105000   95.463206     -15.239483      3.1465949     -12.092888      110.33989      1.3740002    
    106000   91.299709     -15.101814      3.0093605     -12.092453      179.73236      1.3740002    
    107000   96.36781      -15.26969       3.1764118     -12.093279      90.256605      1.3740002    
    108000   95.155055     -15.228754      3.1364378     -12.092316      156.82313      1.3740002    
    109000   92.437524     -15.139774      3.0468644     -12.092909      202.37492      1.3740002    
    110000   98.492339     -15.340043      3.2464392     -12.093604      36.080991      1.3740002    
    111000   93.296205     -15.168281      3.0751677     -12.093114      118.06176      1.3740002    
    112000   95.303133     -15.234204      3.1413187     -12.092885      78.460929      1.3740002    
    113000   94.050663     -15.192861      3.1000356     -12.092825      190.66914      1.3740002    
    114000   98.788227     -15.349283      3.256192      -12.093091     -24.545338      1.3740002    
    115000   88.296181     -15.003581      2.9103602     -12.09322       250.13636      1.3740002    
    116000   93.954554     -15.190027      3.0968677     -12.093159      99.40674       1.3740002    
    117000   95.699442     -15.247518      3.1543815     -12.093136      107.32776      1.3740002    
    118000   92.483884     -15.141713      3.0483925     -12.093321      176.04221      1.3740002    
    119000   90.427278     -15.073985      2.980604      -12.093381      234.98359      1.3740002    
    120000   96.156928     -15.262737      3.1694609     -12.093276      37.345254      1.3740002    
    121000   91.43736      -15.106909      3.0138976     -12.093012      188.15633      1.3740002    
    122000   87.596979     -14.980655      2.8873135     -12.093342      270.39727      1.3740002    
    123000   90.586269     -15.078579      2.9858445     -12.092734      196.36441      1.3740002    
    124000   92.27146      -15.134496      3.0413907     -12.093106      165.14759      1.3740002    
    125000   94.61349      -15.211741      3.1185871     -12.093153      135.55666      1.3740002    
    126000   101.13091     -15.426824      3.3334101     -12.093414     -5.5589904      1.3740002    
    127000   90.21         -15.066564      2.9734422     -12.093122      189.15967      1.3740002    
    128000   95.585762     -15.243676      3.1506345     -12.093042      100.7441       1.3740002    
    129000   95.099981     -15.227652      3.1346225     -12.093029      69.302627      1.3740002    
    130000   91.721871     -15.116985      3.0232755     -12.09371       154.29946      1.3740002    
    131000   91.619341     -15.113275      3.019896      -12.093379      186.34069      1.3740002    
    132000   98.460129     -15.338408      3.2453775     -12.09303       81.556306      1.3740002    
    133000   93.02323      -15.159668      3.06617       -12.093498      183.76889      1.3740002    
    134000   97.068221     -15.292193      3.1994983     -12.092695      86.040082      1.3740002    
    135000   93.200033     -15.164795      3.0719977     -12.092797      99.783325      1.3740002    
    136000   94.971236     -15.223534      3.1303789     -12.093155      149.40587      1.3740002    
    137000   89.25662      -15.035081      2.9420175     -12.093063      257.82124      1.3740002    
    138000   94.809676     -15.218552      3.1250537     -12.093498      117.63514      1.3740002    
    139000   92.237818     -15.133471      3.0402818     -12.093189      176.77561      1.3740002    
    140000   92.323372     -15.13628       3.0431018     -12.093179      170.96969      1.3740002    
    141000   93.900863     -15.188282      3.095098      -12.093184      135.8155       1.3740002    
    142000   96.270034     -15.266064      3.173189      -12.092875      33.730097      1.3740002    
    143000   90.670877     -15.081489      2.9886333     -12.092856      180.30367      1.3740002    
    144000   93.032667     -15.159962      3.0664811     -12.093481      193.18504      1.3740002    
    145000   94.56224      -15.209862      3.1168979     -12.092964      131.11962      1.3740002    
    146000   88.982867     -15.025814      2.9329943     -12.09282       205.66427      1.3740002    
    147000   89.584863     -15.045599      2.9528369     -12.092762      171.50007      1.3740002    
    148000   93.179109     -15.163897      3.071308      -12.092589      113.87544      1.3740002    
    149000   95.497507     -15.240755      3.1477255     -12.093029      97.625157      1.3740002    
    150000   94.753598     -15.216696      3.1232053     -12.09349       125.78887      1.3740002    
    151000   92.67383      -15.147507      3.0546533     -12.092854      212.13403      1.3740002    
    152000   88.683951     -15.016304      2.9231416     -12.093162      184.68987      1.3740002    
    153000   92.434637     -15.14031       3.0467692     -12.093541      85.547376      1.3740002    
    154000   93.966487     -15.190752      3.0972611     -12.093491      101.24945      1.3740002    
    155000   100.40645     -15.402726      3.3095307     -12.093195      34.511451      1.3740002    
    156000   93.172789     -15.164693      3.0710997     -12.093593      103.41312      1.3740002    
    157000   95.584318     -15.243974      3.1505869     -12.093387      78.508461      1.3740002    
    158000   91.36023      -15.104413      3.0113553     -12.093057      223.06584      1.3740002    
    159000   96.23439      -15.265148      3.1720142     -12.093134      48.263916      1.3740002    
    160000   92.828256     -15.152733      3.0597434     -12.09299       127.18232      1.3740002    
    161000   98.165959     -15.329423      3.2356813     -12.093742      24.637477      1.3740002    
    162000   101.86504     -15.450522      3.3576078     -12.092914     -57.034089      1.3740002    
    163000   95.651191     -15.24549       3.1527911     -12.092699      116.23265      1.3740002    
    164000   96.648946     -15.278594      3.1856785     -12.092915      75.039133      1.3740002    
    165000   101.49948     -15.438697      3.3455585     -12.093138      15.500691      1.3740002    
    166000   94.245512     -15.199626      3.1064581     -12.093168      108.81645      1.3740002    
    167000   93.763808     -15.183737      3.0905805     -12.093156      138.49666      1.3740002    
    168000   96.256997     -15.266554      3.1727593     -12.093795      113.60855      1.3740002    
    169000   93.693618     -15.181388      3.0882669     -12.093121      126.7179       1.3740002    
    170000   96.592547     -15.276591      3.1838195     -12.092772      112.20648      1.3740002    
    171000   100.34217     -15.400536      3.3074122     -12.093123     -30.942464      1.3740002    
    172000   95.956078     -15.256167      3.1628406     -12.093326      111.7453       1.3740002    
    173000   96.103096     -15.260781      3.1676865     -12.093095      85.21495       1.3740002    
    174000   95.246131     -15.23228       3.1394398     -12.092841      141.10041      1.3740002    
    175000   99.338481     -15.367107      3.2743292     -12.092778      36.97274       1.3740002    
    176000   95.538718     -15.242072      3.1490839     -12.092988      134.88829      1.3740002    
    177000   96.354628     -15.268851      3.1759774     -12.092874      74.121645      1.3740002    
    178000   96.63494      -15.27827       3.1852168     -12.093053      84.374248      1.3740002    
    179000   97.276151     -15.299162      3.206352      -12.09281       32.16908       1.3740002    
    180000   95.071046     -15.226525      3.1336688     -12.092856      100.91874      1.3740002    
    181000   97.508894     -15.306888      3.2140235     -12.092865      8.4504118      1.3740002    
    182000   91.167996     -15.097601      3.005019      -12.092582      224.52097      1.3740002    
    183000   90.791331     -15.085719      2.9926036     -12.093116      200.48675      1.3740002    
    184000   94.531233     -15.209255      3.1158758     -12.093379      150.25542      1.3740002    
    185000   98.804767     -15.350381      3.2567372     -12.093644      3.6533217      1.3740002    
    186000   93.745032     -15.183202      3.0899616     -12.093241      132.31364      1.3740002    
    187000   93.833455     -15.185826      3.0928761     -12.09295       132.78936      1.3740002    
    188000   95.313402     -15.235188      3.1416572     -12.093531      101.60494      1.3740002    
    189000   92.285269     -15.134997      3.0418458     -12.093151      170.80442      1.3740002    
    190000   90.757498     -15.08473       2.9914885     -12.093241      169.80811      1.3740002    
    191000   102.1061      -15.458741      3.3655535     -12.093187     -46.38503       1.3740002    
    192000   92.991505     -15.158008      3.0651243     -12.092883      193.54858      1.3740002    
    193000   89.626603     -15.047049      2.9542126     -12.092836      243.24216      1.3740002    
    194000   93.843237     -15.1864        3.0931986     -12.093202      66.487329      1.3740002    
    195000   100.70931     -15.412522      3.3195136     -12.093008     -29.471104      1.3740002    
    196000   96.874124     -15.286105      3.1931006     -12.093004      46.287296      1.3740002    
    197000   90.875335     -15.088853      2.9953725     -12.09348       158.35209      1.3740002    
    198000   94.498357     -15.208008      3.1147922     -12.093216      75.877838      1.3740002    
    199000   90.231536     -15.06741       2.9741521     -12.093258      174.29924      1.3740002    
    200000   95.762119     -15.249874      3.1564475     -12.093426      32.952817      1.3740002    
    201000   93.578401     -15.177625      3.0844692     -12.093156      124.68703      1.3740002    
    202000   95.69607      -15.247755      3.1542704     -12.093484      147.8725       1.3740002    
    203000   91.368158     -15.104394      3.0116166     -12.092777      202.81837      1.3740002    
    204000   85.749855     -14.919786      2.8264299     -12.093356      275.61721      1.3740002    
    205000   88.027149     -14.994589      2.9014925     -12.093096      276.51182      1.3740002    
    206000   91.602461     -15.112201      3.0193396     -12.092862      115.9229       1.3740002    
    207000   88.538905     -15.01164       2.9183607     -12.09328       304.96449      1.3740002    
    208000   98.617648     -15.34388       3.2505695     -12.093311      6.9084415      1.3740002    
    209000   93.405306     -15.171856      3.0787638     -12.093093      147.45603      1.3740002    
    210000   96.599625     -15.277009      3.1840528     -12.092956      75.87117       1.3740002    
    211000   95.906999     -15.254261      3.1612229     -12.093038      63.166538      1.3740002    
    212000   101.15855     -15.427165      3.3343212     -12.092844     -40.838183      1.3740002    
    213000   92.01587      -15.125678      3.0329661     -12.092711      168.88198      1.3740002    
    214000   93.467297     -15.17391       3.0808071     -12.093103      141.43013      1.3740002    
    215000   92.773335     -15.151114      3.0579332     -12.093181      193.69039      1.3740002    
    216000   100.12574     -15.393439      3.3002783     -12.093161      7.8420502      1.3740002    
    217000   92.196681     -15.131776      3.0389259     -12.09285       140.94825      1.3740002    
    218000   96.063443     -15.259449      3.1663795     -12.093069      65.86664       1.3740002    
    219000   94.88427      -15.221011      3.1275124     -12.093499      63.945228      1.3740002    
    220000   94.820359     -15.218898      3.1254058     -12.093492      71.189672      1.3740002    
    221000   101.61497     -15.442587      3.3493652     -12.093222     -80.945905      1.3740002    
    222000   93.908158     -15.188712      3.0953384     -12.093374      104.29609      1.3740002    
    223000   93.065325     -15.161432      3.0675575     -12.093875      119.77031      1.3740002    
    224000   96.505058     -15.273706      3.1809357     -12.09277       54.367799      1.3740002    
    225000   96.89857      -15.287263      3.1939064     -12.093357      4.4890845      1.3740002    
    226000   96.942656     -15.288446      3.1953596     -12.093086      132.62348      1.3740002    
    227000   101.40058     -15.435107      3.3422988     -12.092808     -11.162248      1.3740002    
    228000   88.951048     -15.025469      2.9319455     -12.093524      235.52891      1.3740002    
    229000   94.295713     -15.201417      3.1081128     -12.093304      164.2169       1.3740002    
    230000   90.155169     -15.06479       2.9716349     -12.093155      204.36426      1.3740002    
    231000   94.734048     -15.215557      3.1225609     -12.092996      125.85994      1.3740002    
    232000   95.725552     -15.248245      3.1552422     -12.093003      106.50456      1.3740002    
    233000   96.107593     -15.260928      3.1678347     -12.093093      45.466908      1.3740002    
    234000   92.172158     -15.131406      3.0381175     -12.093288      160.40855      1.3740002    
    235000   98.544112     -15.341084      3.2481457     -12.092938      57.355644      1.3740002    
    236000   94.013395     -15.191569      3.0988072     -12.092762      131.60446      1.3740002    
    237000   90.747229     -15.08396       2.99115       -12.09281       161.89938      1.3740002    
    238000   93.033337     -15.159624      3.0665032     -12.093121      148.83343      1.3740002    
    239000   95.198531     -15.230961      3.1378709     -12.09309       104.08883      1.3740002    
    240000   96.093669     -15.260416      3.1673758     -12.09304       94.722542      1.3740002    
    241000   94.733729     -15.215899      3.1225504     -12.093349      102.59907      1.3740002    
    242000   92.555542     -15.144263      3.0507544     -12.093509      193.95816      1.3740002    
    243000   97.967159     -15.322482      3.2291285     -12.093353      93.252396      1.3740002    
    244000   99.631213     -15.377107      3.283978      -12.093129      4.9260146      1.3740002    
    245000   98.143984     -15.327774      3.2349569     -12.092817      19.778981      1.3740002    
    246000   91.094272     -15.09607       3.002589      -12.093481      215.90101      1.3740002    
    247000   91.801517     -15.119342      3.0259007     -12.093441      174.92972      1.3740002    
    248000   93.101418     -15.161298      3.0687472     -12.092551      119.45244      1.3740002    
    249000   91.175575     -15.098406      3.0052688     -12.093137      201.17072      1.3740002    
    250000   95.843479     -15.25224       3.1591292     -12.093111      95.756149      1.3740002    
    251000   96.078374     -15.260002      3.1668717     -12.09313       100.42643      1.3740002    
    252000   97.607848     -15.310574      3.2172852     -12.093289      91.037253      1.3740002    
    253000   89.716522     -15.050182      2.9571765     -12.093006      217.1776       1.3740002    
    254000   95.284424     -15.233914      3.140702      -12.093212      176.90395      1.3740002    
    255000   97.231479     -15.298089      3.2048795     -12.093209      19.511266      1.3740002    
    256000   98.642818     -15.344838      3.2513992     -12.093439     -9.5710275      1.3740002    
    257000   97.822114     -15.317783      3.2243477     -12.093435      31.402188      1.3740002    
    258000   91.566711     -15.110941      3.0181612     -12.09278       195.85341      1.3740002    
    259000   97.086977     -15.293415      3.2001166     -12.093299      39.36504       1.3740002    
    260000   95.147982     -15.229639      3.1362047     -12.093434      181.03557      1.3740002    
    261000   88.274751     -15.002655      2.9096538     -12.093001      208.11582      1.3740002    
    262000   93.181359     -15.164531      3.0713822     -12.093149      120.50228      1.3740002    
    263000   94.12127      -15.195308      3.1023629     -12.092945      133.93743      1.3740002    
    264000   99.588586     -15.375497      3.2825729     -12.092924      43.240445      1.3740002    
    265000   99.056843     -15.358229      3.265046      -12.093183     -9.8613043      1.3740002    
    266000   89.728231     -15.050651      2.9575624     -12.093089      255.56385      1.3740002    
    267000   101.55268     -15.4403        3.347312      -12.092988     -29.487047      1.3740002    
    268000   94.423158     -15.205397      3.1123135     -12.093083      172.67249      1.3740002    
    269000   97.796829     -15.31644       3.2235142     -12.092926      60.904066      1.3740002    
    270000   87.818801     -14.987896      2.8946251     -12.093271      218.74655      1.3740002    
    271000   92.891182     -15.155273      3.0618175     -12.093455      111.70364      1.3740002    
    272000   94.589296     -15.210821      3.1177896     -12.093032      87.441569      1.3740002    
    273000   94.581627     -15.210692      3.1175369     -12.093155      88.169963      1.3740002    
    274000   93.920162     -15.188742      3.0957341     -12.093008      107.21388      1.3740002    
    275000   98.330278     -15.33442       3.2410974     -12.093323      26.843999      1.3740002    
    276000   88.617201     -15.013802      2.9209414     -12.092861      265.34076      1.3740002    
    277000   94.846226     -15.21924       3.1262584     -12.092982      85.018127      1.3740002    
    278000   93.020591     -15.159055      3.066083      -12.092972      164.75466      1.3740002    
    279000   87.967757     -14.992594      2.8995349     -12.093059      293.90209      1.3740002    
    280000   97.193974     -15.296762      3.2036433     -12.093119      51.649236      1.3740002    
    281000   92.846752     -15.153533      3.0603531     -12.09318       147.33159      1.3740002    
    282000   96.006684     -15.257531      3.1645087     -12.093022      86.56533       1.3740002    
    283000   94.763757     -15.217008      3.1235401     -12.093467      117.29152      1.3740002    
    284000   96.233858     -15.265414      3.1719966     -12.093417      23.261677      1.3740002    
    285000   98.446112     -15.338039      3.2449155     -12.093123     -34.15232       1.3740002    
    286000   91.823643     -15.119289      3.02663       -12.092659      202.72142      1.3740002    
    287000   93.825711     -15.185884      3.0926209     -12.093263      140.39803      1.3740002    
    288000   91.042697     -15.094118      3.000889      -12.093229      170.45018      1.3740002    
    289000   92.271554     -15.134614      3.0413938     -12.093221      212.51457      1.3740002    
    290000   92.003389     -15.125588      3.0325547     -12.093033      169.75992      1.3740002    
    291000   96.051481     -15.259464      3.1659852     -12.093478      94.500397      1.3740002    
    292000   93.039715     -15.159391      3.0667134     -12.092678      183.13741      1.3740002    
    293000   97.511653     -15.307093      3.2141144     -12.092979      73.798067      1.3740002    
    294000   94.542771     -15.209664      3.1162561     -12.093408      95.511702      1.3740002    
    295000   88.955664     -15.025191      2.9320976     -12.093093      261.87883      1.3740002    
    296000   96.470787     -15.27275       3.1798061     -12.092944      36.247798      1.3740002    
    297000   96.942483     -15.288399      3.1953538     -12.093045      5.9896207      1.3740002    
    298000   94.757304     -15.216296      3.1233274     -12.092969      96.852217      1.3740002    
    299000   92.976116     -15.157436      3.0646171     -12.092818      93.111879      1.3740002    
    300000   90.358703     -15.071407      2.9783436     -12.093064      245.29798      1.3740002    
    301000   94.906793     -15.221513      3.1282548     -12.093258      110.07231      1.3740002    
    302000   100.90379     -15.418742      3.3259237     -12.092818     -41.640102      1.3740002    
    303000   95.106483     -15.22819       3.1348368     -12.093353      56.709652      1.3740002    
    304000   92.219444     -15.132856      3.0396762     -12.09318       142.19412      1.3740002    
    305000   90.166243     -15.065437      2.9719999     -12.093437      237.65468      1.3740002    
    306000   99.729411     -15.38017       3.2872147     -12.092955      28.418287      1.3740002    
    307000   93.446594     -15.173599      3.0801247     -12.093475      159.95556      1.3740002    
    308000   95.638859     -15.245053      3.1523847     -12.092668      79.856097      1.3740002    
    309000   90.379206     -15.072268      2.9790195     -12.093249      214.91002      1.3740002    
    310000   86.886313     -14.956729      2.863889      -12.09284       283.1371       1.3740002    
    311000   91.625606     -15.113247      3.0201025     -12.093144      171.32958      1.3740002    
    312000   96.763906     -15.282511      3.1894677     -12.093043      62.099139      1.3740002    
    313000   96.314045     -15.267691      3.1746397     -12.093051      114.0553       1.3740002    
    314000   96.314914     -15.268097      3.1746683     -12.093429      110.95069      1.3740002    
    315000   92.95844      -15.157565      3.0640345     -12.093531      168.29661      1.3740002    
    316000   92.413177     -15.13937       3.0460619     -12.093308      169.90659      1.3740002    
    317000   96.505019     -15.274365      3.1809344     -12.09343       39.508947      1.3740002    
    318000   93.349552     -15.17029       3.076926      -12.093364      169.29596      1.3740002    
    319000   96.114514     -15.261724      3.1680629     -12.093661      74.065244      1.3740002    
    320000   91.633709     -15.113367      3.0203696     -12.092997      131.04751      1.3740002    
    321000   95.701859     -15.247366      3.1544612     -12.092904      59.978317      1.3740002    
    322000   91.928883     -15.123645      3.0300989     -12.093546      156.94847      1.3740002    
    323000   94.822933     -15.218692      3.1254906     -12.093202      56.597377      1.3740002    
    324000   95.528989     -15.242174      3.1487632     -12.093411      57.14578       1.3740002    
    325000   99.362184     -15.368003      3.2751104     -12.092892      16.734819      1.3740002    
    326000   94.709793     -15.214879      3.1217614     -12.093118      85.421905      1.3740002    
    327000   94.25617      -15.200132      3.1068094     -12.093323      162.06458      1.3740002    
    328000   94.100468     -15.194465      3.1016772     -12.092788      147.06147      1.3740002    
    329000   96.329549     -15.268184      3.1751507     -12.093033      81.578996      1.3740002    
    330000   95.991235     -15.257212      3.1639994     -12.093213      46.948658      1.3740002    
    331000   95.124397     -15.229207      3.1354273     -12.09378       138.89151      1.3740002    
    332000   90.450969     -15.074731      2.9813849     -12.093346      182.90271      1.3740002    
    333000   93.482118     -15.174237      3.0812956     -12.092941      148.06782      1.3740002    
    334000   95.147773     -15.229479      3.1361978     -12.093281      64.084417      1.3740002    
    335000   92.357429     -15.137479      3.0442243     -12.093255      153.37527      1.3740002    
    336000   96.166923     -15.262712      3.1697903     -12.092922      207.22744      1.3740002    
    337000   96.439981     -15.271633      3.1787907     -12.092842      123.58754      1.3740002    
    338000   93.882286     -15.187035      3.0944856     -12.09255       156.3197       1.3740002    
    339000   95.347423     -15.235844      3.1427785     -12.093065      78.388863      1.3740002    
    340000   92.208397     -15.13289       3.039312      -12.093578      166.19978      1.3740002    
    341000   91.777488     -15.118294      3.0251087     -12.093186      174.52125      1.3740002    
    342000   91.173081     -15.098568      3.0051867     -12.093382      251.99749      1.3740002    
    343000   92.187469     -15.131884      3.0386222     -12.093262      123.6896       1.3740002    
    344000   94.05176      -15.193578      3.1000717     -12.093507      148.19736      1.3740002    
    345000   96.261437     -15.266165      3.1729057     -12.09326       66.076794      1.3740002    
    346000   87.671663     -14.98316       2.8897752     -12.093385      231.22176      1.3740002    
    347000   98.246706     -15.331774      3.2383428     -12.093431      54.672006      1.3740002    
    348000   94.977976     -15.224243      3.1306011     -12.093642      94.428687      1.3740002    
    349000   97.916954     -15.32075       3.2274737     -12.093276      97.316602      1.3740002    
    350000   94.404615     -15.204917      3.1117023     -12.093215      113.59657      1.3740002    
    351000   93.323923     -15.169036      3.0760813     -12.092955      157.01079      1.3740002    
    352000   94.555273     -15.209534      3.1166682     -12.092866      122.5223       1.3740002    
    353000   93.449956     -15.173481      3.0802355     -12.093245      108.91809      1.3740002    
    354000   95.801655     -15.250798      3.1577506     -12.093048      92.01895       1.3740002    
    355000   93.145585     -15.163331      3.070203      -12.093128      126.93178      1.3740002    
    356000   94.995474     -15.224408      3.1311778     -12.09323       144.26027      1.3740002    
    357000   92.561186     -15.144437      3.0509404     -12.093497      150.93387      1.3740002    
    358000   95.860799     -15.252913      3.1597001     -12.093213      50.794912      1.3740002    
    359000   95.940241     -15.255241      3.1623186     -12.092922      74.168851      1.3740002    
    360000   94.843319     -15.2192        3.1261626     -12.093037      116.50697      1.3740002    
    361000   94.596939     -15.211377      3.1180416     -12.093335      96.081869      1.3740002    
    362000   97.586338     -15.309818      3.2165762     -12.093242      58.660011      1.3740002    
    363000   99.536519     -15.373821      3.2808567     -12.092964      1.1922376      1.3740002    
    364000   92.510713     -15.142128      3.0492768     -12.092851      160.51067      1.3740002    
    365000   94.738941     -15.215239      3.1227222     -12.092517      119.8225       1.3740002    
    366000   100.27601     -15.398068      3.3052312     -12.092837     -21.771833      1.3740002    
    367000   94.002107     -15.19139       3.0984351     -12.092955      102.84126      1.3740002    
    368000   90.536644     -15.07694       2.9842088     -12.092731      165.71886      1.3740002    
    369000   88.299248     -15.003429      2.9104613     -12.092968      243.5482       1.3740002    
    370000   99.567548     -15.374915      3.2818795     -12.093035     -33.196167      1.3740002    
    371000   92.324928     -15.136238      3.0431531     -12.093085      118.12277      1.3740002    
    372000   100.8656      -15.417656      3.3246649     -12.092991     -5.2525315      1.3740002    
    373000   94.851717     -15.219845      3.1264394     -12.093406      137.11154      1.3740002    
    374000   90.326265     -15.070446      2.9772745     -12.093172      179.95167      1.3740002    
    375000   92.08516      -15.128042      3.03525       -12.092792      151.57944      1.3740002    
    376000   92.72274      -15.14984       3.0562655     -12.093574      171.36641      1.3740002    
    377000   90.212735     -15.066638      2.9735324     -12.093105      222.94983      1.3740002    
    378000   91.678477     -15.114862      3.0218452     -12.093016      182.97858      1.3740002    
    379000   88.410174     -15.007259      2.9141175     -12.093142      239.97463      1.3740002    
    380000   91.52119      -15.110295      3.0166608     -12.093635      233.05565      1.3740002    
    381000   90.670968     -15.081865      2.9886363     -12.093229      227.9987       1.3740002    
    382000   96.324285     -15.268248      3.1749772     -12.093271      74.618797      1.3740002    
    383000   93.938552     -15.189595      3.0963403     -12.093254      143.6079       1.3740002    
    384000   93.156616     -15.163288      3.0705666     -12.092722      129.25832      1.3740002    
    385000   93.139069     -15.162868      3.0699882     -12.09288       173.06266      1.3740002    
    386000   94.703432     -15.214874      3.1215517     -12.093322      141.61104      1.3740002    
    387000   93.556937     -15.177384      3.0837617     -12.093622      132.1659       1.3740002    
    388000   89.573706     -15.045657      2.9524691     -12.093188      217.6577       1.3740002    
    389000   92.144985     -15.130552      3.0372219     -12.09333       148.86406      1.3740002    
    390000   92.008543     -15.125645      3.0327246     -12.09292       122.00666      1.3740002    
    391000   90.842957     -15.087192      2.9943053     -12.092887      157.57311      1.3740002    
    392000   94.760498     -15.216466      3.1234327     -12.093034      43.531581      1.3740002    
    393000   93.094865     -15.162084      3.0685312     -12.093553      135.49067      1.3740002    
    394000   98.94092      -15.353945      3.261225      -12.09272       54.037679      1.3740002    
    395000   94.665795     -15.213865      3.1203112     -12.093554      123.74896      1.3740002    
    396000   87.497187     -14.977368      2.8840243     -12.093344      300.11818      1.3740002    
    397000   91.57538      -15.111407      3.018447      -12.09296       154.8209       1.3740002    
    398000   92.064196     -15.127199      3.034559      -12.09264       189.55211      1.3740002    
    399000   93.489188     -15.174462      3.0815286     -12.092934      191.80223      1.3740002    
    400000   98.895449     -15.353297      3.2597262     -12.093571      23.453867      1.3740002    
    401000   94.719619     -15.215381      3.1220853     -12.093295      135.06307      1.3740002    
    402000   89.619464     -15.046986      2.9539774     -12.093008      174.27449      1.3740002    
    403000   94.657377     -15.213157      3.1200337     -12.093123      95.33465       1.3740002    
    404000   87.954855     -14.99225       2.8991096     -12.093141      245.48196      1.3740002    
    405000   96.585602     -15.276774      3.1835906     -12.093184      120.19335      1.3740002    
    406000   94.62106      -15.212401      3.1188366     -12.093565      86.541787      1.3740002    
    407000   95.274669     -15.233682      3.1403805     -12.093301      45.53527       1.3740002    
    408000   94.594998     -15.211007      3.1179776     -12.093029      62.507917      1.3740002    
    409000   95.86147      -15.252815      3.1597222     -12.093092      94.851901      1.3740002    
    410000   94.574049     -15.21031       3.1172871     -12.093023      95.603373      1.3740002    
    411000   86.916718     -14.957875      2.8648912     -12.092984      273.32717      1.3740002    
    412000   97.312665     -15.300529      3.2075555     -12.092973      10.104068      1.3740002    
    413000   99.312075     -15.36641       3.2734588     -12.092951      8.8878723      1.3740002    
    414000   93.722746     -15.182548      3.089227      -12.093321      134.37208      1.3740002    
    415000   93.717817     -15.182003      3.0890645     -12.092939      103.27415      1.3740002    
    416000   94.872009     -15.220443      3.1271083     -12.093335      81.856721      1.3740002    
    417000   94.285599     -15.201064      3.1077794     -12.093285      177.37028      1.3740002    
    418000   93.920392     -15.189011      3.0957417     -12.09327       125.04094      1.3740002    
    419000   94.578319     -15.21061       3.1174278     -12.093182      157.30045      1.3740002    
    420000   94.986093     -15.223889      3.1308686     -12.093021      83.147054      1.3740002    
    421000   94.850009     -15.219211      3.1263831     -12.092828      128.9432       1.3740002    
    422000   96.792408     -15.283629      3.1904072     -12.093222      51.982398      1.3740002    
    423000   90.776203     -15.085188      2.992105      -12.093083      170.91765      1.3740002    
    424000   95.433419     -15.238577      3.1456131     -12.092964      88.900255      1.3740002    
    425000   92.18798      -15.131662      3.0386391     -12.093023      174.2427       1.3740002    
    426000   92.974736     -15.157651      3.0645716     -12.09308       112.41283      1.3740002    
    427000   96.542995     -15.275191      3.1821862     -12.093005      111.15513      1.3740002    
    428000   96.683113     -15.279598      3.1868047     -12.092793      98.771409      1.3740002    
    429000   95.550843     -15.242294      3.1494835     -12.092811      126.03965      1.3740002    
    430000   92.40397      -15.138918      3.0457584     -12.093159      139.65106      1.3740002    
    431000   91.412868     -15.106502      3.0130904     -12.093411      258.41075      1.3740002    
    432000   92.035213     -15.127198      3.0336037     -12.093594      159.12583      1.3740002    
    433000   88.439863     -15.008188      2.9150961     -12.093092      211.94035      1.3740002    
    434000   91.888774     -15.122151      3.0287768     -12.093374      126.84609      1.3740002    
    435000   94.382884     -15.204222      3.1109861     -12.093236      129.50404      1.3740002    
    436000   99.213159     -15.363191      3.2701984     -12.092992      0.45082831     1.3740002    
    437000   94.98638      -15.224053      3.1308781     -12.093175      125.01547      1.3740002    
    438000   93.984288     -15.191505      3.0978478     -12.093657      104.59284      1.3740002    
    439000   95.323429     -15.235673      3.1419877     -12.093685      98.591607      1.3740002    
    440000   96.644481     -15.278517      3.1855313     -12.092985      59.161965      1.3740002    
    441000   96.053355     -15.259484      3.166047      -12.093437      82.353101      1.3740002    
    442000   95.466291     -15.24006       3.1466966     -12.093364      22.711267      1.3740002    
    443000   95.478225     -15.240207      3.1470899     -12.093117      80.456268      1.3740002    
    444000   94.726437     -15.215478      3.12231       -12.093168      144.946        1.3740002    
    445000   90.222087     -15.066579      2.9738406     -12.092738      186.61125      1.3740002    
    446000   93.199465     -15.164949      3.071979      -12.09297       162.30431      1.3740002    
    447000   96.111595     -15.260894      3.1679667     -12.092927      77.772059      1.3740002    
    448000   93.516058     -15.175432      3.0824143     -12.093017      140.76988      1.3740002    
    449000   94.822763     -15.218571      3.125485      -12.093086      157.40879      1.3740002    
    450000   93.390335     -15.171455      3.0782703     -12.093185      126.48751      1.3740002    
    451000   98.252215     -15.331795      3.2385244     -12.093271      41.761242      1.3740002    
    452000   94.574345     -15.210226      3.1172968     -12.092929      81.904126      1.3740002    
    453000   95.333248     -15.235595      3.1423113     -12.093283      84.852731      1.3740002    
    454000   92.796449     -15.151867      3.058695      -12.093172      150.75231      1.3740002    
    455000   93.212953     -15.165711      3.0724235     -12.093287      139.37485      1.3740002    
    456000   90.782724     -15.086116      2.99232       -12.093796      196.45185      1.3740002    
    457000   95.221724     -15.231343      3.1386353     -12.092708      60.205426      1.3740002    
    458000   93.208375     -15.164818      3.0722727     -12.092545      154.04403      1.3740002    
    459000   97.014346     -15.290557      3.1977225     -12.092835      49.563359      1.3740002    
    460000   95.852482     -15.252412      3.1594259     -12.092986      86.327202      1.3740002    
    461000   90.523643     -15.07678       2.9837803     -12.093         234.27031      1.3740002    
    462000   94.272226     -15.200494      3.1073386     -12.093155      100.19762      1.3740002    
    463000   91.534764     -15.109743      3.0171082     -12.092635      228.59988      1.3740002    
    464000   95.605274     -15.244604      3.1512777     -12.093326      77.957416      1.3740002    
    465000   90.942576     -15.090511      2.9975889     -12.092922      210.6372       1.3740002    
    466000   91.513271     -15.109144      3.0163998     -12.092744      190.30461      1.3740002    
    467000   91.609185     -15.112329      3.0195612     -12.092768      186.08338      1.3740002    
    468000   91.10085      -15.095739      3.0028058     -12.092933      229.06791      1.3740002    
    469000   97.487365     -15.306963      3.2133139     -12.093649      91.848495      1.3740002    
    470000   94.896667     -15.221088      3.127921      -12.093167      104.47079      1.3740002    
    471000   95.193256     -15.230652      3.137697      -12.092955      77.26289       1.3740002    
    472000   98.565654     -15.341849      3.2488557     -12.092993      56.661757      1.3740002    
    473000   97.915642     -15.320253      3.2274305     -12.092822      85.433737      1.3740002    
    474000   95.994764     -15.257466      3.1641158     -12.093351      55.035512      1.3740002    
    475000   95.754501     -15.24945       3.1561964     -12.093254      88.418702      1.3740002    
    476000   97.710886     -15.313694      3.2206814     -12.093013      76.691386      1.3740002    
    477000   93.966982     -15.190283      3.0972773     -12.093005      119.90989      1.3740002    
    478000   96.539836     -15.274953      3.1820821     -12.092871      33.107304      1.3740002    
    479000   91.400686     -15.106183      3.0126888     -12.093494      166.3473       1.3740002    
    480000   92.338825     -15.13659       3.0436111     -12.092979      106.8156       1.3740002    
    481000   95.56279      -15.242973      3.1498773     -12.093095      141.26053      1.3740002    
    482000   94.950982     -15.222666      3.1297113     -12.092954      15.670669      1.3740002    
    483000   91.721621     -15.116377      3.0232673     -12.09311       137.81425      1.3740002    
    484000   91.53951      -15.110683      3.0172646     -12.093419      143.66722      1.3740002    
    485000   92.785895     -15.151571      3.0583472     -12.093224      139.00032      1.3740002    
    486000   93.714764     -15.18195       3.0889639     -12.092986      101.21813      1.3740002    
    487000   97.280246     -15.299484      3.206487      -12.092997      100.26823      1.3740002    
    488000   96.063271     -15.259567      3.1663738     -12.093193      31.805378      1.3740002    
    489000   96.251914     -15.265675      3.1725918     -12.093083      75.263014      1.3740002    
    490000   96.220686     -15.264874      3.1715625     -12.093312      99.266438      1.3740002    
    491000   94.833864     -15.218808      3.125851      -12.092957      161.18077      1.3740002    
    492000   91.98683      -15.125008      3.0320089     -12.092999      193.68085      1.3740002    
    493000   101.84161     -15.449878      3.3568357     -12.093043      0.0092213675   1.3740002    
    494000   91.945413     -15.123913      3.0306438     -12.09327       250.09152      1.3740002    
    495000   92.77044      -15.150884      3.0578377     -12.093046      204.4545       1.3740002    
    496000   98.257414     -15.332255      3.2386957     -12.09356       70.150356      1.3740002    
    497000   100.99243     -15.422217      3.3288455     -12.093371     -64.057548      1.3740002    
    498000   86.042282     -14.929368      2.8360686     -12.0933        287.09939      1.3740002    
    499000   92.770237     -15.150611      3.057831      -12.092779      140.35141      1.3740002    
    500000   90.69853      -15.082256      2.9895448     -12.092712      214.37703      1.3740002    
    501000   94.918616     -15.221778      3.1286445     -12.093134      140.46314      1.3740002    
    502000   95.544931     -15.242154      3.1492887     -12.092865      150.75787      1.3740002    
    503000   95.719995     -15.248125      3.155059      -12.093066      125.35574      1.3740002    
    504000   96.730138     -15.281648      3.1883547     -12.093294      107.75778      1.3740002    
    505000   92.583095     -15.144803      3.0516626     -12.09314       221.85731      1.3740002    
    506000   92.502048     -15.142624      3.0489912     -12.093633      155.58517      1.3740002    
    507000   91.90044      -15.122898      3.0291614     -12.093736      161.83755      1.3740002    
    508000   96.752665     -15.282285      3.1890972     -12.093188      41.673794      1.3740002    
    509000   92.672336     -15.147693      3.0546041     -12.093089      96.882052      1.3740002    
    510000   95.141111     -15.229408      3.1359782     -12.093429      86.827092      1.3740002    
    511000   94.24917      -15.199451      3.1065786     -12.092872      144.38602      1.3740002    
    512000   93.986806     -15.191162      3.0979308     -12.093231      125.0083       1.3740002    
    513000   94.566515     -15.210251      3.1170388     -12.093213      79.848361      1.3740002    
    514000   96.25655      -15.2657        3.1727446     -12.092955      69.328032      1.3740002    
    515000   94.514728     -15.208549      3.1153318     -12.093217      89.112209      1.3740002    
    516000   99.579658     -15.375048      3.2822787     -12.09277      -3.2094194      1.3740002    
    517000   96.583191     -15.276477      3.1835111     -12.092966      19.326224      1.3740002    
    518000   96.174471     -15.263289      3.1700391     -12.09325       79.505915      1.3740002    
    519000   95.678072     -15.246847      3.1536772     -12.09317       91.123456      1.3740002    
    520000   101.83512     -15.45006       3.3566216     -12.093438     -38.019901      1.3740002    
    521000   96.196885     -15.264222      3.1707779     -12.093444      117.59618      1.3740002    
    522000   94.541198     -15.209589      3.1162043     -12.093384      139.65831      1.3740002    
    523000   96.520011     -15.27487       3.1814286     -12.093441      48.424248      1.3740002    
    524000   89.273781     -15.03552       2.9425832     -12.092937      235.45018      1.3740002    
    525000   98.644997     -15.344022      3.251471      -12.092551      31.679304      1.3740002    
    526000   92.891239     -15.154297      3.0618194     -12.092478      152.98938      1.3740002    
    527000   91.740824     -15.116746      3.0239002     -12.092846      139.83747      1.3740002    
    528000   97.860496     -15.318704      3.2256128     -12.093091      37.383603      1.3740002    
    529000   89.622228     -15.047296      2.9540685     -12.093228      174.9426       1.3740002    
    530000   98.992775     -15.356235      3.2629342     -12.0933       -9.8561801      1.3740002    
    531000   91.173647     -15.098273      3.0052053     -12.093068      173.60218      1.3740002    
    532000   94.88153      -15.220868      3.1274221     -12.093446      83.695832      1.3740002    
    533000   92.571712     -15.144391      3.0512874     -12.093104      154.62707      1.3740002    
    534000   90.871603     -15.087742      2.9952495     -12.092492      203.14751      1.3740002    
    535000   90.071357     -15.061634      2.9688723     -12.092762      169.32296      1.3740002    
    536000   93.933703     -15.189083      3.0961804     -12.092903      69.648663      1.3740002    
    537000   94.569543     -15.210194      3.1171386     -12.093056      116.61789      1.3740002    
    538000   91.483899     -15.108746      3.0154316     -12.093314      162.15672      1.3740002    
    539000   94.958748     -15.222774      3.1299673     -12.092807      101.51157      1.3740002    
    540000   94.838705     -15.218825      3.1260105     -12.092814      141.22947      1.3740002    
    541000   90.009882     -15.05996       2.9668461     -12.093114      180.24696      1.3740002    
    542000   95.40377      -15.237342      3.1446358     -12.092706      104.74509      1.3740002    
    543000   97.388807     -15.303179      3.2100653     -12.093113      11.474791      1.3740002    
    544000   97.648326     -15.311913      3.2186194     -12.093294      66.373115      1.3740002    
    545000   94.331948     -15.2028        3.1093071     -12.093493      91.186609      1.3740002    
    546000   94.607008     -15.211651      3.1183735     -12.093278      86.873212      1.3740002    
    547000   94.188937     -15.198142      3.1045933     -12.093549      132.6602       1.3740002    
    548000   93.401818     -15.171802      3.0786488     -12.093153      121.31459      1.3740002    
    549000   92.967779     -15.157703      3.0643423     -12.09336       142.39641      1.3740002    
    550000   96.107162     -15.261215      3.1678206     -12.093395      116.7062       1.3740002    
    551000   92.574373     -15.144604      3.0513751     -12.093229      150.40599      1.3740002    
    552000   94.944732     -15.222574      3.1295053     -12.093068      118.96192      1.3740002    
    553000   94.201294     -15.198094      3.1050006     -12.093094      119.60509      1.3740002    
    554000   98.57149      -15.342179      3.2490481     -12.093131      61.269285      1.3740002    
    555000   93.323274     -15.16945       3.0760599     -12.09339       150.16133      1.3740002    
    556000   96.066334     -15.259965      3.1664748     -12.09349       121.01875      1.3740002    
    557000   94.822547     -15.218739      3.1254779     -12.093261      173.0073       1.3740002    
    558000   95.2178       -15.231975      3.138506      -12.093469      102.26651      1.3740002    
    559000   90.592501     -15.079636      2.9860499     -12.093586      206.86478      1.3740002    
    560000   91.749041     -15.117362      3.0241711     -12.093191      190.35456      1.3740002    
    561000   90.138774     -15.064058      2.9710945     -12.092964      214.83637      1.3740002    
    562000   92.874627     -15.154503      3.0612719     -12.093231      170.69915      1.3740002    
    563000   93.807071     -15.185426      3.0920065     -12.093419      79.522345      1.3740002    
    564000   90.410904     -15.073487      2.9800643     -12.093423      212.15507      1.3740002    
    565000   92.836951     -15.152992      3.06003       -12.092962      121.38877      1.3740002    
    566000   93.887023     -15.187852      3.0946418     -12.09321       110.38901      1.3740002    
    567000   93.186992     -15.16442       3.0715679     -12.092852      175.42307      1.3740002    
    568000   95.946251     -15.256162      3.1625167     -12.093646      82.735098      1.3740002    
    569000   93.362302     -15.170652      3.0773463     -12.093306      166.45573      1.3740002    
    570000   95.492505     -15.240242      3.1475606     -12.092682      53.864026      1.3740002    
    571000   87.307238     -14.970732      2.8777633     -12.092969      185.87687      1.3740002    
    572000   95.86804      -15.253056      3.1599388     -12.093117      107.96878      1.3740002    
    573000   93.083382     -15.161075      3.0681527     -12.092922      149.73955      1.3740002    
    574000   90.161168     -15.064819      2.9718326     -12.092987      210.44667      1.3740002    
    575000   100.08966     -15.391829      3.2990891     -12.09274      -8.6519209      1.3740002    
    576000   99.056446     -15.358461      3.2650329     -12.093428     -38.756001      1.3740002    
    577000   91.778954     -15.118681      3.025157      -12.093524      142.03086      1.3740002    
    578000   96.564439     -15.276092      3.182893      -12.093199      78.215202      1.3740002    
    579000   92.100719     -15.129092      3.0357628     -12.093329      117.42281      1.3740002    
    580000   93.350818     -15.16958       3.0769678     -12.092612      156.526        1.3740002    
    581000   90.609666     -15.07962       2.9866157     -12.093004      188.0853       1.3740002    
    582000   93.055137     -15.160523      3.0672217     -12.093302      163.48134      1.3740002    
    583000   90.412148     -15.073477      2.9801053     -12.093372      223.66207      1.3740002    
    584000   91.976577     -15.124601      3.0316709     -12.09293       137.71976      1.3740002    
    585000   96.887082     -15.286077      3.1935278     -12.092549      72.143592      1.3740002    
    586000   96.651315     -15.27842       3.1857566     -12.092663      171.70851      1.3740002    
    587000   92.341649     -15.136919      3.0437042     -12.093214      112.24845      1.3740002    
    588000   92.820504     -15.152852      3.0594879     -12.093364      163.93921      1.3740002    
    589000   93.805029     -15.185164      3.0919392     -12.093225      205.70865      1.3740002    
    590000   87.564016     -14.979458      2.886227      -12.093231      297.308        1.3740002    
    591000   90.770716     -15.084892      2.9919242     -12.092968      187.26621      1.3740002    
    592000   90.511996     -15.076755      2.9833964     -12.093359      202.39971      1.3740002    
    593000   93.044676     -15.15941       3.0668769     -12.092533      108.87451      1.3740002    
    594000   93.028783     -15.159387      3.0663531     -12.093034      169.39607      1.3740002    
    595000   92.252985     -15.133941      3.0407817     -12.093159      184.6265       1.3740002    
    596000   95.624207     -15.244653      3.1519017     -12.092751      109.30974      1.3740002    
    597000   87.833671     -14.987731      2.8951152     -12.092616      213.7009       1.3740002    
    598000   93.66727      -15.180192      3.0873985     -12.092793      134.13981      1.3740002    
    599000   91.506213     -15.109295      3.0161671     -12.093128      180.62378      1.3740002    
    600000   94.074424     -15.194155      3.1008188     -12.093336      115.36277      1.3740002    
    601000   88.388448     -15.006724      2.9134014     -12.093322      193.29264      1.3740002    
    602000   96.33588      -15.268761      3.1753594     -12.093401      55.723051      1.3740002    
    603000   99.412138     -15.369865      3.276757      -12.093108      44.216074      1.3740002    
    604000   97.612327     -15.310915      3.2174328     -12.093482      63.678741      1.3740002    
    605000   96.203018     -15.264315      3.1709801     -12.093335      126.95437      1.3740002    
    606000   97.901592     -15.320292      3.2269674     -12.093325      23.221938      1.3740002    
    607000   99.544966     -15.374815      3.2811352     -12.093679     -14.76795       1.3740002    
    608000   91.712806     -15.11664       3.0229767     -12.093663      163.63027      1.3740002    
    609000   98.233751     -15.330826      3.2379158     -12.09291       33.271211      1.3740002    
    610000   100.24084     -15.396687      3.3040722     -12.092615     -37.82378       1.3740002    
    611000   86.453647     -14.942457      2.8496278     -12.092829      289.82352      1.3740002    
    612000   96.990035     -15.290448      3.1969212     -12.093527      51.897664      1.3740002    
    613000   87.368889     -14.972883      2.8797954     -12.093088      243.05331      1.3740002    
    614000   94.979805     -15.223588      3.1306614     -12.092927      104.51473      1.3740002    
    615000   92.678006     -15.147888      3.054791      -12.093097      159.43728      1.3740002    
    616000   95.902476     -15.25395       3.1610738     -12.092876      87.306359      1.3740002    
    617000   97.186002     -15.296653      3.2033806     -12.093272      27.367222      1.3740002    
    618000   92.457023     -15.139975      3.0475071     -12.092468      124.78654      1.3740002    
    619000   95.548871     -15.242136      3.1494185     -12.092718      101.30458      1.3740002    
    620000   97.037126     -15.291453      3.1984734     -12.09298       94.032059      1.3740002    
    621000   93.68694      -15.181071      3.0880468     -12.093024      139.4624       1.3740002    
    622000   92.910398     -15.155824      3.0624509     -12.093373      120.50416      1.3740002    
    623000   89.3159       -15.036981      2.9439715     -12.093009      271.65553      1.3740002    
    624000   91.784511     -15.118492      3.0253402     -12.093151      205.32777      1.3740002    
    625000   92.969606     -15.157564      3.0644025     -12.093162      197.34186      1.3740002    
    626000   88.594734     -15.013277      2.9202009     -12.093076      255.34652      1.3740002    
    627000   91.501072     -15.108844      3.0159977     -12.092846      153.62407      1.3740002    
    628000   93.21442      -15.165669      3.0724719     -12.093198      157.37485      1.3740002    
    629000   92.140855     -15.13048       3.0370858     -12.093394      182.3184       1.3740002    
    630000   92.05473      -15.126814      3.034247      -12.092567      194.50836      1.3740002    
    631000   95.49397      -15.241073      3.1476089     -12.093464      42.695177      1.3740002    
    632000   95.817032     -15.251526      3.1582575     -12.093268      70.627682      1.3740002    
    633000   98.389015     -15.336064      3.2430335     -12.093031      42.095417      1.3740002    
    634000   90.230842     -15.067263      2.9741292     -12.093134      237.20771      1.3740002    
    635000   90.242036     -15.067404      2.9744981     -12.092906      194.56542      1.3740002    
    636000   91.484184     -15.108471      3.015441      -12.09303       175.81817      1.3740002    
    637000   91.494045     -15.108683      3.015766      -12.092917      232.28597      1.3740002    
    638000   94.834589     -15.218787      3.1258748     -12.092912      88.97873       1.3740002    
    639000   89.082401     -15.029245      2.936275      -12.09297       250.04871      1.3740002    
    640000   90.468959     -15.075092      2.9819778     -12.093114      252.06092      1.3740002    
    641000   89.503216     -15.043703      2.9501457     -12.093558      171.40187      1.3740002    
    642000   89.331386     -15.037815      2.9444819     -12.093333      268.30666      1.3740002    
    643000   94.817873     -15.218783      3.1253239     -12.093459      135.89895      1.3740002    
    644000   90.263053     -15.068333      2.9751909     -12.093142      191.85088      1.3740002    
    645000   90.869805     -15.088535      2.9951903     -12.093345      172.85073      1.3740002    
    646000   94.151679     -15.196613      3.1033652     -12.093248      100.10061      1.3740002    
    647000   94.496608     -15.208173      3.1147345     -12.093438      118.63193      1.3740002    
    648000   94.187856     -15.197258      3.1045577     -12.092701      151.98441      1.3740002    
    649000   94.514487     -15.208522      3.1153239     -12.093198      79.75737       1.3740002    
    650000   95.528159     -15.241644      3.1487358     -12.092908      119.39931      1.3740002    
    651000   90.911335     -15.089474      2.9965592     -12.092915      189.00285      1.3740002    
    652000   96.087556     -15.260166      3.1671743     -12.092991      125.38996      1.3740002    
    653000   95.159109     -15.22937       3.1365715     -12.092798      156.18551      1.3740002    
    654000   97.33466      -15.301353      3.2082805     -12.093073      21.807615      1.3740002    
    655000   96.237915     -15.265028      3.1721303     -12.092897      58.962205      1.3740002    
    656000   94.617377     -15.211523      3.1187152     -12.092808      154.00256      1.3740002    
    657000   97.101499     -15.293838      3.2005952     -12.093243      57.656725      1.3740002    
    658000   98.121612     -15.327679      3.2342195     -12.093459      35.977339      1.3740002    
    659000   97.645185     -15.311755      3.2185158     -12.093239      84.463672      1.3740002    
    660000   100.79059     -15.415586      3.3221925     -12.093393     -2.8074303      1.3740002    
    661000   88.239576     -15.002002      2.9084944     -12.093508      232.5779       1.3740002    
    662000   94.185425     -15.198055      3.1044775     -12.093577      137.33204      1.3740002    
    663000   92.897337     -15.154747      3.0620204     -12.092727      124.93797      1.3740002    
    664000   95.366772     -15.236847      3.1434163     -12.09343       144.33343      1.3740002    
    665000   92.019686     -15.126298      3.0330919     -12.093206      151.26378      1.3740002    
    666000   93.275319     -15.167521      3.0744792     -12.093042      91.167647      1.3740002    
    667000   89.672187     -15.048559      2.9557152     -12.092843      240.19689      1.3740002    
    668000   88.254492     -15.002406      2.908986      -12.09342       283.61764      1.3740002    
    669000   93.713515     -15.181715      3.0889227     -12.092792      104.75266      1.3740002    
    670000   95.14085      -15.228826      3.1359696     -12.092856      118.33825      1.3740002    
    671000   100.47525     -15.404701      3.3117986     -12.092902      26.48681       1.3740002    
    672000   96.038546     -15.258635      3.1655589     -12.093076      92.052395      1.3740002    
    673000   96.991673     -15.28985       3.1969752     -12.092875      69.120646      1.3740002    
    674000   94.922494     -15.221908      3.1287723     -12.093136      140.57665      1.3740002    
    675000   92.44656      -15.140249      3.0471622     -12.093087      221.18119      1.3740002    
    676000   96.322141     -15.268455      3.1749065     -12.093549      51.318045      1.3740002    
    677000   95.478142     -15.239941      3.1470872     -12.092854      47.926331      1.3740002    
    678000   98.168311     -15.328896      3.2357588     -12.093137      53.365287      1.3740002    
    679000   89.360719     -15.038849      2.9454488     -12.0934        251.30336      1.3740002    
    680000   93.711        -15.182138      3.0888398     -12.093298      180.0971       1.3740002    
    681000   100.07948     -15.39187       3.2987535     -12.093116     -51.556592      1.3740002    
    682000   93.541129     -15.176202      3.0832407     -12.092961      157.72838      1.3740002    
    683000   97.839301     -15.318314      3.2249142     -12.0934        32.597654      1.3740002    
    684000   93.208101     -15.165112      3.0722636     -12.092848      188.75717      1.3740002    
    685000   97.084684     -15.292828      3.200041      -12.092787      68.670212      1.3740002    
    686000   94.754739     -15.216607      3.1232429     -12.093364      146.97241      1.3740002    
    687000   92.913363     -15.155235      3.0625487     -12.092686      146.62303      1.3740002    
    688000   96.023382     -15.258041      3.1650591     -12.092982      128.91721      1.3740002    
    689000   93.85909      -15.186627      3.0937211     -12.092905      129.21457      1.3740002    
    690000   94.587542     -15.21039       3.1177318     -12.092658      200.04621      1.3740002    
    691000   92.139966     -15.130707      3.0370565     -12.093651      127.80135      1.3740002    
    692000   90.855009     -15.088167      2.9947026     -12.093465      165.52185      1.3740002    
    693000   93.230722     -15.166403      3.0730092     -12.093394      147.29526      1.3740002    
    694000   95.379016     -15.237031      3.1438199     -12.093211      156.14797      1.3740002    
    695000   88.873545     -15.023009      2.9293909     -12.093618      202.09448      1.3740002    
    696000   93.783185     -15.184214      3.0912192     -12.092995      173.07399      1.3740002    
    697000   88.796317     -15.019709      2.9268453     -12.092863      237.60481      1.3740002    
    698000   93.06932      -15.160304      3.0676892     -12.092615      157.58277      1.3740002    
    699000   95.459255     -15.239533      3.1464647     -12.093068      76.447734      1.3740002    
    700000   84.375933     -14.874628      2.7811436     -12.093484      310.99963      1.3740002    
    701000   91.934366     -15.123375      3.0302796     -12.093095      153.32612      1.3740002    
    702000   92.82431      -15.152788      3.0596134     -12.093174      166.33634      1.3740002    
    703000   94.273014     -15.200588      3.1073646     -12.093223      13.695311      1.3740002    
    704000   98.059506     -15.325414      3.2321724     -12.093241     -10.177689      1.3740002    
    705000   92.96455      -15.157588      3.0642359     -12.093352      137.36408      1.3740002    
    706000   87.333727     -14.97134       2.8786364     -12.092703      331.91584      1.3740002    
    707000   88.22853      -15.000668      2.9081303     -12.092538      250.35154      1.3740002    
    708000   91.48057      -15.107902      3.0153219     -12.09258       210.12872      1.3740002    
    709000   91.819018     -15.119298      3.0264776     -12.09282       176.13515      1.3740002    
    710000   88.118901     -14.997428      2.9045168     -12.092911      252.81325      1.3740002    
    711000   90.709888     -15.083522      2.9899192     -12.093602      161.25358      1.3740002    
    712000   98.591597     -15.342538      3.2497108     -12.092827      76.122517      1.3740002    
    713000   97.93892      -15.321491      3.2281978     -12.093293     -3.7823311      1.3740002    
    714000   89.423394     -15.040444      2.9475146     -12.092929      192.81506      1.3740002    
    715000   90.124336     -15.063749      2.9706186     -12.093131      261.04098      1.3740002    
    716000   88.034536     -14.995247      2.901736      -12.093511      258.97995      1.3740002    
    717000   93.225995     -15.166135      3.0728535     -12.093282      111.2541       1.3740002    
    718000   93.706269     -15.182247      3.0886839     -12.093563      106.57547      1.3740002    
    719000   98.324951     -15.334029      3.2409218     -12.093107      66.151512      1.3740002    
    720000   99.554614     -15.374766      3.2814532     -12.093313     -56.911496      1.3740002    
    721000   93.465632     -15.174067      3.0807522     -12.093315      136.65679      1.3740002    
    722000   95.009136     -15.224673      3.1316281     -12.093044      103.50158      1.3740002    
    723000   98.359976     -15.335205      3.2420763     -12.093129      50.338407      1.3740002    
    724000   93.433533     -15.172881      3.0796942     -12.093187      128.81986      1.3740002    
    725000   93.941763     -15.189155      3.0964461     -12.092709      128.04215      1.3740002    
    726000   89.113242     -15.030371      2.9372916     -12.09308       263.217        1.3740002    
    727000   93.225991     -15.166351      3.0728533     -12.093498      114.07951      1.3740002    
    728000   90.508906     -15.07679       2.9832946     -12.093495      226.53362      1.3740002    
    729000   90.540152     -15.07738       2.9843245     -12.093056      213.44322      1.3740002    
    730000   91.191092     -15.09912       3.0057803     -12.09334       197.57204      1.3740002    
    731000   93.817378     -15.184924      3.0923462     -12.092578      172.08309      1.3740002    
    732000   93.59338      -15.17809       3.0849629     -12.093127      140.46064      1.3740002    
    733000   94.732908     -15.215727      3.1225233     -12.093204      135.4074       1.3740002    
    734000   96.566221     -15.276353      3.1829518     -12.093401      79.923513      1.3740002    
    735000   93.93598      -15.189562      3.0962555     -12.093306      190.47108      1.3740002    
    736000   93.665834     -15.180484      3.0873511     -12.093133      128.15847      1.3740002    
    737000   92.631208     -15.146098      3.0532485     -12.09285       180.49748      1.3740002    
    738000   93.641749     -15.1795        3.0865573     -12.092942      90.535682      1.3740002    
    739000   92.691621     -15.148607      3.0552398     -12.093367      133.95823      1.3740002    
    740000   89.463627     -15.041788      2.9488408     -12.092947      282.81328      1.3740002    
    741000   92.519061     -15.142921      3.0495519     -12.093369      152.43322      1.3740002    
    742000   97.420764     -15.304001      3.2111186     -12.092882      30.847429      1.3740002    
    743000   94.72676      -15.215397      3.1223207     -12.093077      140.04024      1.3740002    
    744000   94.800006     -15.217605      3.1247349     -12.09287       96.863129      1.3740002    
    745000   95.581444     -15.24386       3.1504922     -12.093368      121.12973      1.3740002    
    746000   90.166589     -15.064785      2.9720113     -12.092774      248.95264      1.3740002    
    747000   97.394825     -15.303297      3.2102636     -12.093033      46.341389      1.3740002    
    748000   95.533054     -15.242289      3.1488972     -12.093392      109.95217      1.3740002    
    749000   93.267202     -15.16769       3.0742117     -12.093478      139.15636      1.3740002    
    750000   98.780323     -15.348844      3.2559315     -12.092912      10.881891      1.3740002    
    751000   95.796253     -15.251046      3.1575726     -12.093473      119.78771      1.3740002    
    752000   95.47221      -15.23996       3.1468917     -12.093068      70.58682       1.3740002    
    753000   95.28826      -15.233823      3.1408284     -12.092995      109.02315      1.3740002    
    754000   96.569767     -15.276161      3.1830686     -12.093092      15.486112      1.3740002    
    755000   94.584928     -15.210598      3.1176457     -12.092952      155.34603      1.3740002    
    756000   95.644304     -15.24592       3.1525641     -12.093355      94.1447        1.3740002    
    757000   94.530661     -15.208985      3.115857      -12.093128      161.27668      1.3740002    
    758000   93.987097     -15.191169      3.0979404     -12.093229      119.28153      1.3740002    
    759000   93.596651     -15.178251      3.0850708     -12.09318       125.60875      1.3740002    
    760000   95.474611     -15.240519      3.1469708     -12.093548      78.961858      1.3740002    
    761000   99.862984     -15.384772      3.2916175     -12.093155      20.686515      1.3740002    
    762000   95.910576     -15.254679      3.1613408     -12.093338      101.74711      1.3740002    
    763000   94.934186     -15.222599      3.1291577     -12.093441      72.066008      1.3740002    
    764000   93.410895     -15.171975      3.078948      -12.093027      107.75161      1.3740002    
    765000   103.66423     -15.510073      3.4169117     -12.093161     -76.338541      1.3740002    
    766000   96.66497      -15.278994      3.1862066     -12.092787      91.115942      1.3740002    
[...]
   4816000   97.932302     -15.320798      3.2279796     -12.092818      60.650308      1.3740002    
   4817000   98.254554     -15.331133      3.2386015     -12.092532     -25.517399      1.3740002    
   4818000   98.469672     -15.339169      3.2456921     -12.093477     -2.5236682      1.3740002    
   4819000   98.197614     -15.33026       3.2367247     -12.093535      54.170224      1.3740002    
   4820000   90.769408     -15.085097      2.991881      -12.093215      219.49864      1.3740002    
   4821000   89.947426     -15.05818       2.9647874     -12.093392      196.08139      1.3740002    
   4822000   91.569973     -15.111357      3.0182687     -12.093088      163.02798      1.3740002    
   4823000   92.481097     -15.141612      3.0483006     -12.093311      191.98461      1.3740002    
   4824000   94.257199     -15.199503      3.1068433     -12.09266       98.207919      1.3740002    
   4825000   90.767976     -15.085338      2.9918339     -12.093504      231.24899      1.3740002    
   4826000   97.763561     -15.315481      3.2224177     -12.093064      24.505603      1.3740002    
   4827000   92.910385     -15.155883      3.0624505     -12.093433      101.40089      1.3740002    
   4828000   93.880728     -15.187188      3.0944343     -12.092753      126.11613      1.3740002    
   4829000   91.926566     -15.122935      3.0300225     -12.092912      158.75724      1.3740002    
   4830000   99.006264     -15.356113      3.2633788     -12.092734     -7.3221194      1.3740002    
   4831000   91.479168     -15.108479      3.0152757     -12.093204      176.63079      1.3740002    
   4832000   90.980066     -15.091785      2.9988246     -12.092961      166.25778      1.3740002    
   4833000   92.642583     -15.146214      3.0536234     -12.09259       149.08286      1.3740002    
   4834000   98.340428     -15.334254      3.241432      -12.092822      0.65096971     1.3740002    
   4835000   90.145833     -15.064436      2.9713272     -12.093109      186.65902      1.3740002    
   4836000   93.94182      -15.189153      3.096448      -12.092705      101.82169      1.3740002    
   4837000   95.715437     -15.24758       3.1549088     -12.092671      25.790573      1.3740002    
   4838000   93.445622     -15.173052      3.0800926     -12.09296       121.1805       1.3740002    
   4839000   95.448882     -15.239146      3.1461228     -12.093023      98.910575      1.3740002    
   4840000   93.577902     -15.177959      3.0844528     -12.093507      173.84708      1.3740002    
   4841000   92.34652      -15.137125      3.0438648     -12.09326       159.72832      1.3740002    
   4842000   97.193091     -15.296663      3.2036142     -12.093048      69.092635      1.3740002    
   4843000   93.262492     -15.167296      3.0740564     -12.09324       112.92312      1.3740002    
   4844000   90.291645     -15.069236      2.9761333     -12.093103      241.91555      1.3740002    
   4845000   99.815185     -15.382948      3.2900419     -12.092907      19.03454       1.3740002    
   4846000   97.294355     -15.300329      3.206952      -12.093377      24.115814      1.3740002    
   4847000   92.173863     -15.131324      3.0381738     -12.09315       164.40391      1.3740002    
   4848000   90.283812     -15.069031      2.9758751     -12.093156      195.68206      1.3740002    
   4849000   95.937146     -15.255458      3.1622166     -12.093241      63.559854      1.3740002    
   4850000   90.194753     -15.066102      2.9729396     -12.093162      214.9533       1.3740002    
   4851000   95.175115     -15.230266      3.137099      -12.093166      44.771128      1.3740002    
   4852000   90.213017     -15.06702       2.9735416     -12.093478      173.13973      1.3740002    
   4853000   93.565406     -15.177552      3.0840409     -12.093511      154.28302      1.3740002    
   4854000   92.682895     -15.148152      3.0549521     -12.0932        150.3466       1.3740002    
   4855000   90.219327     -15.066334      2.9737496     -12.092585      263.6528       1.3740002    
   4856000   92.136223     -15.129762      3.0369331     -12.092829      177.38343      1.3740002    
   4857000   96.271399     -15.266486      3.173234      -12.093252      114.52112      1.3740002    
   4858000   96.636154     -15.278125      3.1852568     -12.092868      60.258676      1.3740002    
   4859000   99.710267     -15.380151      3.2865837     -12.093567     -39.390562      1.3740002    
   4860000   97.687938     -15.313191      3.219925      -12.093266     -16.622627      1.3740002    
   4861000   86.987144     -14.960445      2.8672125     -12.093233      235.79197      1.3740002    
   4862000   94.109738     -15.195107      3.1019828     -12.093124      135.77231      1.3740002    
   4863000   92.075316     -15.128051      3.0349255     -12.093126      210.82891      1.3740002    
   4864000   92.865823     -15.154388      3.0609817     -12.093406      210.17984      1.3740002    
   4865000   90.951027     -15.09088       2.9978675     -12.093013      209.87505      1.3740002    
   4866000   92.209992     -15.132133      3.0393646     -12.092769      157.6581       1.3740002    
   4867000   94.359037     -15.203598      3.1102        -12.093398      118.19315      1.3740002    
   4868000   96.716255     -15.28074       3.1878971     -12.092843      49.804181      1.3740002    
   4869000   95.933342     -15.255275      3.1620912     -12.093184      82.179778      1.3740002    
   4870000   97.98445      -15.322625      3.2296985     -12.092926      23.359376      1.3740002    
   4871000   98.209669     -15.329957      3.237122      -12.092835      25.854912      1.3740002    
   4872000   94.442147     -15.206455      3.1129394     -12.093515      119.26531      1.3740002    
   4873000   93.798509     -15.184865      3.0917243     -12.093141      82.34124       1.3740002    
   4874000   95.798645     -15.250452      3.1576514     -12.0928        90.715625      1.3740002    
   4875000   92.822061     -15.152598      3.0595392     -12.093059      179.93559      1.3740002    
   4876000   102.53215     -15.472564      3.3795967     -12.092967      10.201252      1.3740002    
   4877000   98.976477     -15.355409      3.262397      -12.093012      104.52596      1.3740002    
   4878000   91.694154     -15.115628      3.0223619     -12.093266      165.37601      1.3740002    
   4879000   89.722438     -15.050253      2.9573715     -12.092881      251.68087      1.3740002    
   4880000   95.464936     -15.239359      3.1466519     -12.092707      120.04954      1.3740002    
   4881000   90.947766     -15.090467      2.99776       -12.092707      196.73365      1.3740002    
   4882000   95.340598     -15.235467      3.1425536     -12.092913      93.175623      1.3740002    
   4883000   98.538001     -15.341342      3.2479442     -12.093398     -23.318163      1.3740002    
   4884000   94.115993     -15.195521      3.102189      -12.093332      117.71177      1.3740002    
   4885000   100.16497     -15.39499       3.3015712     -12.093419     -32.215383      1.3740002    
   4886000   95.534309     -15.241952      3.1489386     -12.093013      120.18461      1.3740002    
   4887000   94.414706     -15.205558      3.1120349     -12.093524      16.276471      1.3740002    
   4888000   93.285376     -15.167852      3.0748107     -12.093041      58.450669      1.3740002    
   4889000   95.52406      -15.242028      3.1486007     -12.093427      50.888453      1.3740002    
   4890000   93.688436     -15.181289      3.0880961     -12.093193      108.04708      1.3740002    
   4891000   96.776367     -15.283194      3.1898784     -12.093315      43.98954       1.3740002    
   4892000   91.8197       -15.119449      3.0265001     -12.092949      199.32301      1.3740002    
   4893000   96.051823     -15.259494      3.1659965     -12.093497      60.229731      1.3740002    
   4894000   89.20055      -15.033694      2.9401694     -12.093525      224.71306      1.3740002    
   4895000   93.693785     -15.181611      3.0882724     -12.093338      122.70768      1.3740002    
   4896000   99.178344     -15.362358      3.2690508     -12.093307      12.620412      1.3740002    
   4897000   92.938564     -15.156759      3.0633793     -12.093379      108.382        1.3740002    
   4898000   91.025025     -15.093307      3.0003065     -12.093         175.88805      1.3740002    
   4899000   92.559547     -15.143899      3.0508864     -12.093013      187.86244      1.3740002    
   4900000   95.388839     -15.237012      3.1441437     -12.092869      122.67104      1.3740002    
   4901000   97.144329     -15.295175      3.202007      -12.093168      60.832878      1.3740002    
   4902000   94.186666     -15.197256      3.1045185     -12.092738      127.69937      1.3740002    
   4903000   96.581568     -15.277131      3.1834576     -12.093674      33.507293      1.3740002    
   4904000   91.771289     -15.117736      3.0249044     -12.092832      122.67469      1.3740002    
   4905000   92.947778     -15.15672       3.063683      -12.093037      143.72079      1.3740002    
   4906000   96.524902     -15.275175      3.1815898     -12.093585      113.40895      1.3740002    
   4907000   93.578967     -15.177643      3.0844879     -12.093155      143.89491      1.3740002    
   4908000   95.864692     -15.252803      3.1598284     -12.092974      86.230309      1.3740002    
   4909000   90.792967     -15.08613       2.9926576     -12.093472      198.03213      1.3740002    
   4910000   92.143094     -15.130176      3.0371596     -12.093016      207.8712       1.3740002    
   4911000   97.429906     -15.304608      3.21142       -12.093188      93.598024      1.3740002    
   4912000   96.458825     -15.272352      3.1794119     -12.09294       89.244896      1.3740002    
   4913000   97.326211     -15.301582      3.208002      -12.09358       34.404779      1.3740002    
   4914000   90.999823     -15.092465      2.9994758     -12.092989      224.94033      1.3740002    
   4915000   92.213441     -15.132965      3.0394783     -12.093487      163.30879      1.3740002    
   4916000   90.903326     -15.089514      2.9962952     -12.093219      201.31969      1.3740002    
   4917000   93.238024     -15.166507      3.0732499     -12.093257      169.62569      1.3740002    
   4918000   94.493857     -15.207675      3.1146439     -12.093031      119.57317      1.3740002    
   4919000   90.698467     -15.082923      2.9895427     -12.093381      197.17502      1.3740002    
   4920000   88.37748      -15.006088      2.9130399     -12.093049      275.63687      1.3740002    
   4921000   94.402401     -15.204925      3.1116294     -12.093296      113.54893      1.3740002    
   4922000   93.251382     -15.166749      3.0736902     -12.093059      144.94263      1.3740002    
   4923000   94.215884     -15.198928      3.1054815     -12.093446      79.387688      1.3740002    
   4924000   96.956416     -15.288833      3.1958131     -12.09302       86.474067      1.3740002    
   4925000   93.266402     -15.166908      3.0741853     -12.092723      121.17105      1.3740002    
   4926000   98.238731     -15.331104      3.2380799     -12.093024      46.038324      1.3740002    
   4927000   90.068974     -15.061695      2.9687938     -12.092901      224.18296      1.3740002    
   4928000   93.007396     -15.158818      3.0656481     -12.09317       87.159312      1.3740002    
   4929000   97.676455     -15.312695      3.2195466     -12.093148      10.290394      1.3740002    
   4930000   92.438798     -15.139837      3.0469064     -12.092931      170.46658      1.3740002    
   4931000   96.952173     -15.288731      3.1956732     -12.093057      169.36859      1.3740002    
   4932000   94.175553     -15.197374      3.1041521     -12.093222      103.95827      1.3740002    
   4933000   92.710554     -15.149143      3.0558638     -12.09328       199.52754      1.3740002    
   4934000   86.596965     -14.947529      2.8543517     -12.093177      240.6064       1.3740002    
   4935000   95.374236     -15.237024      3.1436623     -12.093362      150.50405      1.3740002    
   4936000   97.602875     -15.310083      3.2171212     -12.092962      85.705063      1.3740002    
   4937000   88.053608     -14.995776      2.9023646     -12.093411      272.86781      1.3740002    
   4938000   98.020116     -15.324295      3.2308741     -12.093421      70.53163       1.3740002    
   4939000   101.47991     -15.438292      3.3449134     -12.093379     -31.120445      1.3740002    
   4940000   95.172966     -15.229868      3.1370282     -12.09284       98.675929      1.3740002    
   4941000   96.721981     -15.281088      3.1880858     -12.093002      63.286781      1.3740002    
   4942000   89.322719     -15.037219      2.9441962     -12.093023      266.22379      1.3740002    
   4943000   90.703244     -15.082968      2.9897002     -12.093268      127.63206      1.3740002    
   4944000   95.309253     -15.235122      3.1415204     -12.093602      65.911854      1.3740002    
   4945000   98.472326     -15.339173      3.2457795     -12.093393      42.535879      1.3740002    
   4946000   94.676844     -15.213735      3.1206754     -12.093059      101.40813      1.3740002    
   4947000   96.421008     -15.271367      3.1781653     -12.093202      113.54222      1.3740002    
   4948000   92.858109     -15.154016      3.0607274     -12.093289      90.069005      1.3740002    
   4949000   90.000617     -15.059835      2.9665407     -12.093294      198.21194      1.3740002    
   4950000   90.910178     -15.08965       2.996521      -12.093129      203.31368      1.3740002    
   4951000   92.230013     -15.133085      3.0400245     -12.093061      144.02222      1.3740002    
   4952000   89.625218     -15.047532      2.954167      -12.093365      233.01325      1.3740002    
   4953000   91.815604     -15.119187      3.0263651     -12.092822      174.12536      1.3740002    
   4954000   92.921405     -15.156135      3.0628137     -12.093321      140.34119      1.3740002    
   4955000   93.217913     -15.166134      3.0725871     -12.093547      173.8162       1.3740002    
   4956000   93.109765     -15.162079      3.0690223     -12.093056      105.91669      1.3740002    
   4957000   93.223876     -15.165868      3.0727836     -12.093084      130.35879      1.3740002    
   4958000   92.154257     -15.130871      3.0375275     -12.093344      175.02807      1.3740002    
   4959000   100.63424     -15.410189      3.3170391     -12.09315      -1.5926406      1.3740002    
   4960000   93.647002     -15.179478      3.0867304     -12.092748      173.09185      1.3740002    
   4961000   99.029396     -15.357395      3.2641413     -12.093254     -33.442451      1.3740002    
   4962000   97.500971     -15.306828      3.2137624     -12.093066      31.119321      1.3740002    
   4963000   97.05815      -15.291961      3.1991664     -12.092795      83.298711      1.3740002    
   4964000   94.779804     -15.217231      3.1240691     -12.093162      80.969413      1.3740002    
   4965000   94.417593     -15.205458      3.1121301     -12.093328      104.41306      1.3740002    
   4966000   91.60769      -15.112679      3.0195119     -12.093167      172.55922      1.3740002    
   4967000   95.933946     -15.25522       3.1621111     -12.093109      63.430655      1.3740002    
   4968000   94.783467     -15.217144      3.1241898     -12.092955      153.73258      1.3740002    
   4969000   95.293495     -15.234187      3.141001      -12.093186      76.82077       1.3740002    
   4970000   96.784786     -15.283419      3.1901559     -12.093263      60.448144      1.3740002    
   4971000   91.456815     -15.107596      3.0145389     -12.093057      193.97881      1.3740002    
   4972000   89.717125     -15.050396      2.9571964     -12.093199      250.52322      1.3740002    
   4973000   95.016619     -15.225071      3.1318748     -12.093196      123.98974      1.3740002    
   4974000   92.299691     -15.134799      3.0423212     -12.092477      217.47966      1.3740002    
   4975000   89.949687     -15.058087      2.9648619     -12.093226      159.35866      1.3740002    
   4976000   96.360411     -15.269532      3.176168      -12.093364      68.790588      1.3740002    
   4977000   92.461557     -15.140867      3.0476565     -12.09321       149.21098      1.3740002    
   4978000   92.746558     -15.150691      3.0570506     -12.093641      101.5121       1.3740002    
   4979000   93.249241     -15.166725      3.0736197     -12.093106      131.41706      1.3740002    
   4980000   99.383454     -15.369309      3.2758115     -12.093498     -30.081506      1.3740002    
   4981000   92.644884     -15.147089      3.0536992     -12.09339       109.25939      1.3740002    
   4982000   98.938158     -15.354347      3.261134      -12.093213      19.515621      1.3740002    
   4983000   96.538319     -15.275158      3.1820321     -12.093126      55.577494      1.3740002    
   4984000   91.401111     -15.106078      3.0127028     -12.093375      144.3898       1.3740002    
   4985000   94.972144     -15.223171      3.1304088     -12.092762      95.309484      1.3740002    
   4986000   95.169517     -15.229776      3.1369145     -12.092862      116.31109      1.3740002    
   4987000   93.185032     -15.164959      3.0715032     -12.093455      125.34632      1.3740002    
   4988000   94.639298     -15.212568      3.1194378     -12.09313       61.44686       1.3740002    
   4989000   99.10274      -15.359881      3.2665588     -12.093322     -37.086854      1.3740002    
   4990000   94.919658     -15.221617      3.1286788     -12.092938      75.169584      1.3740002    
   4991000   94.82379      -15.218725      3.1255189     -12.093206      107.12875      1.3740002    
   4992000   96.20499      -15.264144      3.1710451     -12.093098      143.89833      1.3740002    
   4993000   98.986915     -15.355987      3.262741      -12.093246     -17.572192      1.3740002    
   4994000   97.712521     -15.313877      3.2207353     -12.093141      54.87364       1.3740002    
   4995000   92.758984     -15.150763      3.0574601     -12.093303      156.83859      1.3740002    
   4996000   95.781187     -15.250617      3.157076      -12.093541      101.03126      1.3740002    
   4997000   91.60466      -15.112441      3.0194121     -12.093029      201.49656      1.3740002    
   4998000   98.907037     -15.35334       3.2601082     -12.093232     -83.766879      1.3740002    
   4999000   91.617348     -15.112851      3.0198303     -12.093021      192.08005      1.3740002    
   5000000   96.6902       -15.280203      3.1870383     -12.093164      105.47126      1.3740002    
Loop time of 16827.8 on 1 procs for 5000000 steps with 256 atoms

Performance: 25.672 ns/day, 0.935 hours/ns, 297.128 timesteps/s
99.6% CPU use with 1 MPI tasks x 1 OpenMP threads

MPI task timing breakdown:
Section |  min time  |  avg time  |  max time  |%varavg| %total
---------------------------------------------------------------
Pair    | 7936.6     | 7936.6     | 7936.6     |   0.0 | 47.16
Neigh   | 1039.6     | 1039.6     | 1039.6     |   0.0 |  6.18
Comm    | 300.55     | 300.55     | 300.55     |   0.0 |  1.79
Output  | 4.4052     | 4.4052     | 4.4052     |   0.0 |  0.03
Modify  | 7519       | 7519       | 7519       |   0.0 | 44.68
Other   |            | 27.58      |            |       |  0.16

Nlocal:            256 ave         256 max         256 min
Histogram: 1 0 0 0 0 0 0 0 0 0
Nghost:           2852 ave        2852 max        2852 min
Histogram: 1 0 0 0 0 0 0 0 0 0
Neighs:          38144 ave       38144 max       38144 min
Histogram: 1 0 0 0 0 0 0 0 0 0

Total # of neighbors = 38144
Ave neighs/atom = 149
Neighbor list builds = 500000
Dangerous builds not checked
Total wall time: 4:40:27
