 # LAMMPS timestep 98196
 
         256  atoms
           1  atom types
 
      0.000000000000      23.120600000000  xlo xhi
      0.000000000000      23.120600000000  ylo yhi
      0.000000000000      23.120600000000  zlo zhi
 
Masses
 
1   39.94800200             # Ar
 
Atoms # atomic
 
         1    1       22.241500000000       7.670930000000       0.755449000000
         2    1        6.499430000000       1.726910000000      19.896200000000
         3    1        7.348120000000      23.095300000000      16.883800000000
         4    1       17.961400000000      22.433100000000       2.626560000000
         5    1       10.571200000000       6.710010000000      21.819500000000
         6    1       14.457000000000      17.643500000000       2.705390000000
         7    1        8.161660000000      16.325300000000       1.212840000000
         8    1        5.495720000000       4.950280000000       3.790100000000
         9    1       12.478700000000       1.347620000000       1.145930000000
        10    1        6.739220000000       8.388810000000      17.080400000000
        11    1       11.181200000000      16.463400000000       3.465810000000
        12    1        3.663710000000      12.396900000000      21.114600000000
        13    1       14.581500000000       3.483520000000      15.938900000000
        14    1        8.761880000000      16.712200000000      20.927400000000
        15    1       17.641100000000      15.985800000000      14.849600000000
        16    1       17.423800000000       2.748530000000       2.958010000000
        17    1       22.809100000000       3.693640000000      21.907100000000
        18    1       17.380100000000       6.492480000000      21.925800000000
        19    1       15.533900000000       0.059832500000       4.893090000000
        20    1        6.707910000000       8.051190000000      20.859700000000
        21    1        3.120070000000       9.469420000000      18.575500000000
        22    1        1.796930000000      11.758300000000      11.479200000000
        23    1        4.660460000000       5.303150000000      19.329600000000
        24    1       22.187600000000       8.328600000000      17.238200000000
        25    1       11.560500000000      18.962100000000      19.874000000000
        26    1       20.289300000000       9.920670000000      14.599200000000
        27    1       16.485300000000       2.995760000000      10.451300000000
        28    1       19.721900000000       5.327830000000       1.707440000000
        29    1        9.143640000000      10.020000000000      22.423300000000
        30    1       20.397900000000       5.301090000000      19.404600000000
        31    1       22.504700000000       6.389250000000       4.699290000000
        32    1       19.018300000000       2.576020000000      13.062500000000
        33    1        5.838130000000      23.039900000000       5.652460000000
        34    1       13.856300000000      19.806300000000      10.663600000000
        35    1       11.527800000000      17.786700000000      13.325100000000
        36    1        1.010760000000      17.863600000000      10.606900000000
        37    1        5.918990000000      13.013000000000      13.084500000000
        38    1        8.119700000000      12.553900000000      16.271600000000
        39    1       12.241700000000      19.907400000000       4.280450000000
        40    1       12.401400000000      15.752500000000      19.230200000000
        41    1       20.418800000000       7.211520000000      10.634700000000
        42    1       13.878700000000      14.263100000000       1.972810000000
        43    1       11.766000000000      14.594300000000       9.047750000000
        44    1       12.378000000000       9.462910000000       4.792870000000
        45    1       18.054700000000      15.873400000000       4.276150000000
        46    1       17.973900000000      18.391100000000       1.666490000000
        47    1       10.368100000000       4.559390000000      10.651600000000
        48    1        5.039940000000      15.812700000000      22.417900000000
        49    1        2.884130000000      12.947700000000       1.711140000000
        50    1       17.733400000000       0.613845000000      19.246000000000
        51    1        8.360940000000      21.969400000000       2.913660000000
        52    1        0.943294000000      21.835000000000       0.078523600000
        53    1       19.156300000000      21.604500000000      16.090400000000
        54    1       12.848900000000       0.281590000000      17.969700000000
        55    1       10.481600000000      19.782800000000      16.617800000000
        56    1        0.347095000000       6.831320000000      20.276200000000
        57    1       10.174900000000       6.738220000000      16.555100000000
        58    1        5.913170000000      20.251600000000       8.715050000000
        59    1        4.784160000000      13.079000000000       9.691510000000
        60    1        9.276530000000      15.466400000000       6.573250000000
        61    1       22.808700000000      18.445700000000      22.031000000000
        62    1       17.260500000000      12.925800000000       2.129630000000
        63    1       11.591100000000      15.069700000000      22.324800000000
        64    1       12.853000000000       6.582510000000       8.889900000000
        65    1        0.857184000000      13.258100000000       4.835760000000
        66    1       21.919600000000       2.651680000000       4.177880000000
        67    1        1.231050000000       9.281340000000       3.722070000000
        68    1        5.348950000000      19.551500000000       4.732220000000
        69    1       11.750200000000      22.795400000000      10.654400000000
        70    1        3.725600000000       8.235850000000      22.537800000000
        71    1       14.239700000000       5.680490000000      11.974100000000
        72    1        8.550830000000       1.268120000000       8.306730000000
        73    1        4.203720000000      19.153300000000      16.585700000000
        74    1        3.727100000000      17.275000000000       8.417610000000
        75    1        2.766880000000       1.445970000000      20.091500000000
        76    1       15.990800000000      22.949600000000       8.719370000000
        77    1       22.694900000000      18.290900000000       3.057640000000
        78    1        2.346130000000      20.545700000000       6.553240000000
        79    1        6.532410000000      11.545300000000      19.401100000000
        80    1       16.011100000000      19.936800000000       5.836560000000
        81    1       19.514000000000      17.256200000000      21.826900000000
        82    1       19.772000000000      23.101100000000       9.821150000000
        83    1        3.081480000000       2.251560000000       5.486640000000
        84    1        0.519795000000       8.396840000000       9.639500000000
        85    1        4.297870000000       3.437530000000      22.979700000000
        86    1        4.632850000000      18.569100000000       1.249290000000
        87    1       22.947100000000       3.502320000000      14.567100000000
        88    1        4.842070000000       8.719430000000       3.162900000000
        89    1       17.274000000000       2.944330000000       6.893020000000
        90    1       14.904800000000       5.615530000000       1.008920000000
        91    1       19.522900000000      12.979500000000      21.470600000000
        92    1       17.164100000000      10.914900000000       4.651220000000
        93    1       14.302400000000      21.186900000000       1.197330000000
        94    1       15.957900000000      23.051400000000      15.498300000000
        95    1       16.032900000000      14.091300000000      17.875400000000
        96    1       14.833500000000       9.479060000000       7.636440000000
        97    1        7.537080000000       4.597750000000      17.624000000000
        98    1        0.786816000000       6.988410000000      13.131700000000
        99    1        7.389970000000      15.275500000000       9.844420000000
       100    1       19.324700000000      11.877300000000      18.221300000000
       101    1       16.259900000000       5.368030000000      18.931700000000
       102    1       18.710300000000       7.850080000000      16.971100000000
       103    1        9.816530000000       6.209180000000       4.483340000000
       104    1        8.120820000000      17.647200000000       4.295290000000
       105    1       10.231700000000       8.073970000000      12.707200000000
       106    1        6.227710000000      11.290500000000       0.952047000000
       107    1       19.674100000000      19.374900000000       4.679530000000
       108    1       12.006200000000      13.470700000000       5.461170000000
       109    1        5.599100000000       9.977500000000       8.204200000000
       110    1       12.002200000000      17.579500000000       7.237800000000
       111    1       18.870900000000       3.022190000000      16.840400000000
       112    1       19.011700000000       9.484650000000       7.933770000000
       113    1       21.299500000000      13.764700000000      15.401400000000
       114    1       13.101100000000      22.316000000000      21.348200000000
       115    1        1.474460000000       4.107420000000      17.902100000000
       116    1       10.249100000000       0.201532000000      14.250200000000
       117    1       20.941600000000      19.990100000000      12.302700000000
       118    1        2.100750000000       5.852190000000       2.297280000000
       119    1       17.385500000000       9.445300000000       0.867407000000
       120    1        8.083180000000      13.503300000000      21.781300000000
       121    1       15.365000000000      18.171300000000      21.421400000000
       122    1       16.223300000000      22.637400000000      12.134500000000
       123    1        5.710340000000      17.753700000000      11.797900000000
       124    1       16.788000000000      18.730100000000      13.028900000000
       125    1       22.302500000000      15.578400000000      12.541700000000
       126    1       22.422100000000       9.611430000000       6.688510000000
       127    1       15.916700000000       7.660240000000       4.373490000000
       128    1        9.495760000000      16.079800000000      17.022700000000
       129    1       22.193500000000       0.848351000000       7.687330000000
       130    1        9.794890000000      22.510400000000      19.617300000000
       131    1        4.097210000000      12.683200000000      16.107600000000
       132    1        7.600190000000      19.179100000000      14.614500000000
       133    1       20.306500000000      17.272800000000      10.013600000000
       134    1       13.170800000000       2.898290000000       8.878410000000
       135    1        6.554260000000       7.201880000000       6.379320000000
       136    1        6.275390000000      15.017100000000      18.481100000000
       137    1       16.656900000000      16.913500000000       9.078710000000
       138    1       11.064500000000       4.370970000000       1.721670000000
       139    1       16.083700000000      11.086500000000      21.122100000000
       140    1       14.101300000000       4.510080000000       4.026530000000
       141    1       17.226900000000       7.589630000000      13.183100000000
       142    1       17.303700000000      10.573900000000      11.428900000000
       143    1        2.165360000000       0.620391000000      13.383800000000
       144    1       20.020000000000      19.888700000000      19.648300000000
       145    1        0.396858000000       4.139070000000       7.201870000000
       146    1       19.309600000000       0.989429000000      22.639400000000
       147    1       14.055000000000       9.569060000000      13.053000000000
       148    1       21.820700000000      11.068300000000       1.280880000000
       149    1        7.623680000000       5.596870000000      14.187500000000
       150    1        4.018890000000       4.180780000000      12.409200000000
       151    1        7.700820000000       2.197360000000      12.947900000000
       152    1       12.469400000000      13.849900000000      16.091600000000
       153    1       17.816100000000      13.112400000000       7.322870000000
       154    1        3.290070000000      15.439400000000      13.072000000000
       155    1       14.280700000000       2.825100000000      20.885500000000
       156    1       21.155100000000      11.323400000000      11.355300000000
       157    1       11.166000000000      18.915400000000       0.797670000000
       158    1       19.520300000000       9.262720000000      20.510000000000
       159    1       13.550400000000       7.295130000000      15.472200000000
       160    1       21.818100000000      19.426100000000       7.692140000000
       161    1        3.538020000000       7.353070000000      10.371400000000
       162    1       20.937900000000      17.797400000000      15.175100000000
       163    1        2.209120000000      11.196100000000       7.725680000000
       164    1       11.755700000000       8.065890000000       1.465460000000
       165    1        2.626370000000       7.534900000000       6.420000000000
       166    1        8.109140000000      12.449800000000       6.801230000000
       167    1        9.973550000000       8.495770000000       7.705760000000
       168    1        0.166849000000      13.915400000000      21.682000000000
       169    1        0.801900000000      12.682200000000      18.519500000000
       170    1       21.891200000000      22.310100000000       4.209350000000
       171    1       14.216500000000       8.219080000000      20.921000000000
       172    1       14.271200000000      15.307400000000      11.432700000000
       173    1       22.953500000000      18.303700000000      18.555100000000
       174    1       18.589900000000      14.066800000000      11.224200000000
       175    1       15.090800000000      20.006000000000      17.557000000000
       176    1       20.280000000000       6.278920000000      14.359800000000
       177    1        5.622200000000       3.629280000000       7.587120000000
       178    1        5.104430000000       1.445220000000       2.581180000000
       179    1        9.928840000000       2.083920000000      17.420900000000
       180    1       19.888000000000       8.595610000000       3.206420000000
       181    1        2.586510000000      20.181300000000      20.526300000000
       182    1        9.705680000000      14.870700000000      13.557300000000
       183    1       13.015000000000      21.719500000000       7.407310000000
       184    1        3.169970000000      16.301200000000      19.464200000000
       185    1       13.783100000000      17.110900000000      15.831100000000
       186    1        2.957990000000       0.814101000000       8.593280000000
       187    1        6.487500000000      16.040800000000      15.106900000000
       188    1        7.226410000000      18.621800000000      18.689500000000
       189    1       20.353900000000       3.936670000000       9.128330000000
       190    1        0.120326000000      21.873700000000      10.112600000000
       191    1        1.367940000000      14.597400000000       9.317650000000
       192    1        2.333160000000      22.099000000000      17.322300000000
       193    1       10.635300000000      10.147400000000      15.862600000000
       194    1       18.775400000000      22.732900000000       6.257860000000
       195    1        1.294350000000      20.056000000000      13.504700000000
       196    1        7.244920000000       4.689950000000      22.292900000000
       197    1       11.078000000000       9.176980000000      19.234000000000
       198    1        8.268350000000       7.378460000000       1.639960000000
       199    1        9.629940000000       4.146690000000       7.145900000000
       200    1        3.344120000000       6.569970000000      16.027400000000
       201    1       16.281400000000      14.806400000000      22.312900000000
       202    1       11.052900000000       4.208350000000      14.395100000000
       203    1        4.608260000000      11.581800000000       4.827940000000
       204    1        8.633570000000       0.330712000000      22.702400000000
       205    1       10.502400000000      12.673900000000      19.259000000000
       206    1       21.636300000000      -0.001793150000      13.682600000000
       207    1        5.829200000000      22.304400000000      13.779600000000
       208    1       20.495800000000      13.423500000000       4.863430000000
       209    1        7.530850000000      10.090300000000      13.518800000000
       210    1        2.087600000000      17.028100000000       5.116940000000
       211    1       14.312500000000      10.838200000000       2.454190000000
       212    1        7.839070000000      20.187800000000      22.587800000000
       213    1        7.342830000000       7.264770000000      10.026700000000
       214    1       10.490800000000      18.248300000000      10.174700000000
       215    1        1.300280000000       1.872930000000       1.801140000000
       216    1       10.272800000000      12.299400000000       1.571600000000
       217    1        8.854050000000      21.055000000000      11.873700000000
       218    1       21.126500000000      12.715000000000       8.319210000000
       219    1       18.889700000000       5.769260000000       5.301250000000
       220    1       13.492400000000       1.736990000000      12.615700000000
       221    1        3.386520000000      21.120000000000      10.878000000000
       222    1       21.117100000000      14.800600000000       1.422140000000
       223    1       17.209600000000      21.246100000000      21.497600000000
       224    1        0.584493000000       2.746160000000      10.703800000000
       225    1        8.590120000000      11.584600000000      10.739500000000
       226    1       22.142200000000      16.062200000000       6.731190000000
       227    1        4.621560000000      15.590000000000       3.013490000000
       228    1       13.146700000000      21.003400000000      14.078900000000
       229    1       15.361900000000      13.141100000000      13.968100000000
       230    1       17.884700000000      17.841200000000      17.805400000000
       231    1        4.067330000000       9.320830000000      13.541100000000
       232    1        1.031630000000      11.066100000000      14.855400000000
       233    1        7.940700000000      13.852900000000       3.672800000000
       234    1       11.487900000000      11.969000000000      13.013500000000
       235    1       11.988900000000      10.115500000000      10.036500000000
       236    1        5.397400000000      14.662200000000       6.531810000000
       237    1       14.657500000000      12.655600000000       8.892410000000
       238    1       12.623800000000       4.834120000000      18.487600000000
       239    1        8.050830000000      10.312300000000       3.691260000000
       240    1       17.991700000000      20.052800000000       9.213410000000
       241    1        0.518640000000      10.201400000000      21.451900000000
       242    1        2.549160000000      21.663200000000       3.247650000000
       243    1       20.585600000000      20.700400000000       0.535940000000
       244    1       16.590900000000       6.457000000000       9.380220000000
       245    1        1.577410000000      15.390800000000      16.288300000000
       246    1        9.159740000000      19.956200000000       7.251850000000
       247    1        4.378560000000       2.308000000000      15.917300000000
       248    1       10.912500000000       2.296160000000      21.149900000000
       249    1       10.689400000000       0.650946000000       5.798490000000
       250    1       15.882500000000       9.984810000000      17.610600000000
       251    1       12.643100000000      11.368000000000      22.071100000000
       252    1       21.603700000000      23.001800000000      18.422200000000
       253    1       14.961000000000      15.502800000000       5.973030000000
       254    1        1.886680000000      16.647900000000       0.811855000000
       255    1        5.057330000000      22.948100000000      22.420600000000
       256    1       20.858800000000      15.373600000000      18.798000000000
 
Velocities
 
         1   -0.24027400E+01  -0.13497500E+00   0.11945300E+01
         2   -0.40968100E+01   0.13548300E+01  -0.20989500E+01
         3   -0.10732000E+01   0.87481000E+00  -0.68393900E+00
         4   -0.13922200E+01   0.13457300E+01  -0.35451500E+00
         5    0.76002900E+00  -0.25170800E+01   0.19546700E+01
         6   -0.11824600E+01   0.38718600E+00   0.16497900E+01
         7   -0.13881900E+01  -0.19747800E+00  -0.87793000E+00
         8    0.31760200E-01  -0.64290500E-01  -0.52988600E+00
         9    0.14175100E+01  -0.60682900E+00  -0.29006400E+00
        10   -0.37044200E+00  -0.44908900E+00   0.58945800E+00
        11   -0.48420500E+00  -0.48583100E+00  -0.60676800E+00
        12   -0.21497700E+01  -0.20013800E+01   0.94168300E+00
        13    0.10144800E+01  -0.27052300E+00   0.18454200E+01
        14    0.95451300E-01  -0.20652600E+01  -0.22691200E+01
        15    0.13767200E+01  -0.16188800E+01  -0.45383400E+00
        16    0.20688100E+00  -0.66658100E+00   0.30072200E+00
        17    0.47937100E+00   0.13895600E+01   0.16316600E+01
        18   -0.13729700E+00  -0.52502400E+00   0.10545300E+01
        19    0.39605600E+01  -0.14827600E+01  -0.60194600E+00
        20   -0.91175200E+00   0.21141900E+01   0.76732800E+00
        21   -0.22151900E+01  -0.18327600E+01  -0.24695600E+01
        22   -0.95429100E+00   0.35406300E+01   0.12880500E+01
        23    0.62155000E+00   0.42512100E+01  -0.91260300E+00
        24   -0.36115700E+00  -0.15428700E+01  -0.26714900E+01
        25    0.17993000E+00   0.13171200E+01   0.30887400E+01
        26    0.53644000E+00  -0.61305800E+00  -0.53183900E-01
        27   -0.19270600E+01   0.93858800E+00  -0.15892900E+00
        28    0.88346400E+00  -0.14038500E+01  -0.14488300E+00
        29    0.13133500E+01   0.13031500E+01   0.33097400E+01
        30    0.87876500E+00  -0.40796600E+00   0.98753800E+00
        31    0.89679400E+00   0.13651500E+01  -0.57160900E-01
        32   -0.54282200E+00  -0.20893700E+00  -0.29834400E-01
        33   -0.21697500E+01  -0.49339000E+00   0.11671800E+01
        34   -0.11677700E+00  -0.11094300E+01   0.29287700E+01
        35    0.20163700E+01  -0.20376700E+01   0.14652500E+01
        36    0.72201100E+00  -0.69769300E+00  -0.88949800E+00
        37    0.31470300E+00   0.65726000E+00   0.22870600E+00
        38    0.14677400E+01   0.61760700E+00  -0.24705000E+01
        39   -0.59975300E+00   0.12961700E+01   0.31880700E+00
        40   -0.28560800E+01  -0.87510800E+00  -0.49773900E+00
        41   -0.74415800E+00  -0.33548400E+01  -0.64390600E+00
        42    0.21469500E+01   0.38450400E+00   0.55249600E-01
        43   -0.28057000E+00   0.45065300E+00  -0.49117200E+00
        44    0.23889800E+00   0.67924900E+00  -0.77545400E+00
        45   -0.74941300E-01   0.10512800E+01   0.33950900E+00
        46    0.67786700E+00   0.81134100E+00  -0.30064400E+00
        47    0.11404900E+00   0.79463100E+00   0.99683900E+00
        48   -0.27321200E+01  -0.21180800E+01  -0.52912000E+00
        49   -0.29499100E+01   0.12705600E+01  -0.34376200E+00
        50   -0.35334000E+00   0.58201000E+00  -0.28047800E+00
        51   -0.13994200E+01   0.74027900E+00  -0.75450400E+00
        52   -0.33265100E+00   0.11542700E+01  -0.20383600E+01
        53    0.63261000E+00  -0.24792300E+00   0.40656400E+01
        54   -0.62530700E+00  -0.10284200E+01   0.38273800E+00
        55    0.49464100E+00  -0.15047300E+00   0.19577000E+01
        56    0.23176100E+01   0.45781000E+00   0.95932900E+00
        57   -0.16565800E+01  -0.15455100E+01   0.17736200E+01
        58   -0.57809400E+00  -0.14177300E+01   0.55223700E+00
        59    0.19502600E+00   0.67157900E+00   0.23336300E+01
        60   -0.16841900E+01   0.36565100E+00   0.50603900E-01
        61    0.76060500E+00   0.50260100E-01  -0.68262900E+00
        62    0.21186100E+01  -0.18247300E+01  -0.24223100E+00
        63    0.80150600E+00   0.13231700E+01  -0.19351000E+01
        64   -0.12092900E+01   0.65893900E+00  -0.36754200E+00
        65   -0.91253700E+00  -0.27151600E+00  -0.71306000E+00
        66    0.42804600E+00   0.19891400E+00  -0.53249500E+00
        67    0.45312400E+00   0.55509600E+00  -0.12149500E+01
        68   -0.24259100E+00  -0.65283400E+00  -0.10112700E+01
        69   -0.15400900E+01   0.28447200E+01  -0.13853000E+00
        70    0.43871900E+00  -0.41811100E+00   0.38248400E+01
        71    0.11316700E+01   0.40327200E-01  -0.16738000E+01
        72    0.21847700E+01   0.14959400E+01  -0.75861000E+00
        73    0.20996500E+01  -0.54886700E+00  -0.71566100E-01
        74    0.26593300E+01  -0.12312200E+01   0.10761700E+01
        75    0.26009500E+01   0.10238300E+01  -0.49598400E+00
        76    0.25713500E+01   0.66086000E+00   0.40606600E+00
        77    0.67587700E+00  -0.60233700E+00  -0.16402700E+00
        78   -0.34149000E+00  -0.70378100E+00  -0.13723800E+01
        79   -0.99947800E+00  -0.16615300E+01   0.12390900E+01
        80    0.96654300E+00   0.69617800E+00  -0.27314400E+01
        81   -0.23441100E+01  -0.31506600E+00  -0.29088600E+00
        82    0.10258100E+01  -0.17938900E+01  -0.12138700E+01
        83   -0.25363400E+00   0.26708000E+01  -0.56874600E+00
        84   -0.52141800E+00  -0.41996700E+00  -0.28377300E-01
        85   -0.92675400E+00   0.32351700E+00   0.20789900E+00
        86   -0.21680600E+01  -0.97736700E+00  -0.70523800E+00
        87   -0.13489400E+01  -0.56958400E+00   0.11857300E+01
        88   -0.13476400E+01   0.33449400E+01   0.20045900E+01
        89   -0.11829900E+01  -0.11143400E+01   0.50498800E+00
        90    0.46492300E+00   0.54687600E+00   0.10946700E+01
        91    0.28769000E+01   0.12106500E+01   0.29865400E+01
        92    0.16111800E+01  -0.20683100E+01   0.38732400E+00
        93   -0.91043400E+00   0.22544400E+01  -0.31499700E+01
        94   -0.91950700E+00  -0.21841400E+00   0.20238200E+01
        95   -0.30655000E+00  -0.21340100E+01   0.61593400E+00
        96    0.36736900E-01   0.20178200E+01  -0.22873600E+01
        97    0.19988200E+01  -0.47844500E+00   0.83277200E+00
        98   -0.11943400E+01   0.13005500E+01  -0.19061800E+01
        99   -0.35513400E-01   0.94118300E+00  -0.97860600E+00
       100    0.13887600E+01  -0.71702000E+00  -0.10949700E+01
       101    0.16974300E+01   0.87149300E+00  -0.67722900E+00
       102   -0.21296400E+00  -0.11836000E+01   0.86522300E+00
       103    0.15041500E+01  -0.50587100E+00  -0.30853400E+01
       104    0.16696900E+01   0.14711500E+01   0.48006500E+00
       105   -0.26347700E+00  -0.38088600E+00   0.44913500E+00
       106   -0.91359900E+00  -0.10858600E+01  -0.10190000E+01
       107   -0.14811400E+01   0.13159400E+01  -0.42913100E+01
       108    0.23660000E+01  -0.33980300E-01  -0.24082000E+01
       109    0.94993500E+00   0.11930700E+01   0.58410500E+00
       110   -0.30005800E+00  -0.15136500E+01   0.18837000E+01
       111   -0.66642600E+00  -0.55101000E+00   0.88846800E+00
       112   -0.19727700E+01   0.63550400E+00  -0.19991500E+00
       113    0.22388500E+01   0.49228900E+00  -0.13779900E+00
       114    0.24016600E+00  -0.15683200E+01  -0.18639900E+01
       115   -0.44003600E+00   0.23282900E+01  -0.72650500E+00
       116    0.12053800E+01   0.15295200E+01   0.26192800E+00
       117   -0.11904000E+01   0.81650200E+00   0.19210700E+01
       118   -0.19581600E+00  -0.50485200E+00   0.14521700E+01
       119   -0.10341500E+00  -0.39716400E+00  -0.34520500E+00
       120   -0.93170400E+00   0.11751000E+01   0.16471200E+01
       121    0.10908800E+01   0.61930100E+00   0.15164700E+01
       122   -0.21359500E+01   0.25866400E+00  -0.37778300E+00
       123    0.55348200E-01   0.22044100E+01  -0.14988200E+01
       124    0.11895900E+01   0.11736000E+01   0.75251600E+00
       125    0.88503300E+00  -0.78721900E+00  -0.62519600E+00
       126   -0.10257200E+00  -0.25377700E+00   0.20419000E+00
       127    0.11502300E+01   0.20203900E+01  -0.64582000E+00
       128    0.47376900E+00  -0.57323000E-01   0.94350800E+00
       129   -0.36402600E+00   0.20593400E+01   0.59565900E+00
       130    0.26680700E+00  -0.10464400E+01  -0.12870000E+01
       131   -0.68066000E+00   0.26287200E+00  -0.16205000E+00
       132   -0.10532000E+01  -0.21968800E+01  -0.14962400E+00
       133   -0.48191300E+00   0.20932400E+01  -0.71896600E+00
       134   -0.12861600E+01   0.18214700E+00   0.12698500E+01
       135    0.40619500E+00  -0.25402300E+00   0.24444300E+01
       136   -0.12515700E+01  -0.21997600E+01  -0.88548400E+00
       137    0.56740500E+00   0.19000300E+01  -0.75343400E+00
       138    0.75221000E-01  -0.15135700E+01   0.42389100E+00
       139    0.25847900E+01  -0.16942200E+00   0.11864600E+01
       140   -0.18773100E+01  -0.16190000E+01  -0.13680300E+01
       141   -0.11033300E+01   0.16053800E+00  -0.16212300E+01
       142    0.65636300E-01   0.15615400E+01  -0.17510500E+00
       143    0.36379800E+00   0.14925000E+01  -0.12059000E+00
       144   -0.52599700E+00   0.29494000E+00   0.37523200E+00
       145   -0.11195600E+01   0.14583000E+01   0.70511100E-01
       146    0.30426900E+01  -0.12344100E+01   0.13460500E+01