LAMMPS (15 Sep 2022)
OMP_NUM_THREADS environment is not set. Defaulting to 1 thread. (src/comm.cpp:98)
  using 1 OpenMP thread(s) per MPI task
variable T equal 94.0

units metal
boundary p p p
atom_style atomic

read_data nve.lmp
Reading data file ...
  orthogonal box = (0 0 0) to (23.1206 17.34045 17.34045)
  1 by 1 by 1 MPI processor grid
  reading atoms ...
  144 atoms
  reading velocities ...
  144 velocities
  read_data CPU = 0.046 seconds

neighbor 0.1 bin
neigh_modify delay 10 check no

pair_style lj/cut 15.0
pair_coeff 1 1 0.0103 3.405 15.0

thermo 1000
thermo_style custom step temp pe ke etotal press density

# Calculate the kinetic energy
compute g2 all rdf 1000
fix 1 all nve
fix temp_1 all ave/time 1 10000 10000 c_thermo_temp file temp.dat
fix g2_1 all ave/time 1 5000000 5000000 c_g2[*] file rdf.dat mode vector

dump 1 all custom 1000 argon.dump id type x y z vx vy vz

run 5000000
Generated 0 of 0 mixed pair_coeff terms from geometric mixing rule
Neighbor list info ...
  update: every = 1 steps, delay = 10 steps, check = no
  max neighbors/atom: 2000, page size: 100000
  master list distance cutoff = 15.1
  ghost atom cutoff = 15.1
  binsize = 7.55, bins = 4 3 3
  2 neighbor lists, perpetual/occasional/extra = 1 1 0
  (1) pair lj/cut, perpetual
      attributes: half, newton on
      pair build: half/bin/atomonly/newton
      stencil: half/bin/3d
      bin: standard
  (2) compute rdf, occasional, copy from (1)
      attributes: half, newton on
      pair build: copy
      stencil: none
      bin: none
Per MPI rank memory allocation (min/avg/max) = 3.935 | 3.935 | 3.935 Mbytes
   Step          Temp          PotEng         KinEng         TotEng         Press         Density    
         0   94.009886     -8.5285113      1.7376976     -6.7908137      99.077338      1.3740002    
      1000   95.16445      -8.5493712      1.7590388     -6.7903324      176.92774      1.3740002    
      2000   91.347485     -8.4794967      1.6884853     -6.7910114      267.17397      1.3740002    
      3000   94.370581     -8.5350349      1.7443648     -6.7906702      117.43414      1.3740002    
      4000   95.925556     -8.5637055      1.7731072     -6.7905982      90.253103      1.3740002    
      5000   87.913902     -8.4160539      1.6250182     -6.7910357      253.98519      1.3740002    
      6000   94.165979     -8.531364       1.7405829     -6.7907811      78.826819      1.3740002    
      7000   92.231706     -8.4955439      1.7048294     -6.7907145      103.00299      1.3740002    
      8000   89.860075     -8.4513998      1.6609917     -6.7904082      273.23094      1.3740002    
      9000   97.013118     -8.5836427      1.7932099     -6.7904328      84.78797       1.3740002    
     10000   90.927748     -8.4713785      1.6807267     -6.7906518      207.30465      1.3740002    
     11000   97.138176     -8.5865448      1.7955215     -6.7910233      63.580966      1.3740002    
     12000   92.282959     -8.4967808      1.7057767     -6.791004       195.83311      1.3740002    
     13000   89.606174     -8.4469396      1.6562985     -6.7906411      217.09435      1.3740002    
     14000   92.721153     -8.504443       1.7138764     -6.7905666      176.49128      1.3740002    
     15000   98.728763     -8.6152881      1.8249223     -6.7903658      75.592175      1.3740002    
     16000   97.265747     -8.5884537      1.7978796     -6.7905741      135.40177      1.3740002    
     17000   94.832008     -8.5434869      1.7528939     -6.790593       110.78789      1.3740002    
     18000   96.035566     -8.5661354      1.7751407     -6.7909948      172.43523      1.3740002    
     19000   97.101567     -8.5852546      1.7948449     -6.7904098      84.878264      1.3740002    
     20000   91.908874     -8.4897228      1.6988621     -6.7908607      129.69889      1.3740002    
     21000   95.853679     -8.5626067      1.7717787     -6.790828       98.610175      1.3740002    
     22000   98.432271     -8.6099629      1.8194419     -6.790521       68.316308      1.3740002    
     23000   98.29241      -8.6073669      1.8168566     -6.7905103      12.697374      1.3740002    
     24000   95.13209      -8.5491918      1.7584406     -6.7907511      83.072419      1.3740002    
     25000   90.620353     -8.4656142      1.6750448     -6.7905694      222.43229      1.3740002    
     26000   90.109105     -8.4564506      1.6655948     -6.7908558      171.84124      1.3740002    
     27000   95.302881     -8.5522529      1.7615976     -6.7906553      103.49598      1.3740002    
     28000   94.080795     -8.5296524      1.7390083     -6.7906441      144.94077      1.3740002    
     29000   97.830184     -8.5989607      1.8083128     -6.7906479      79.860512      1.3740002    
     30000   98.035895     -8.6033241      1.8121152     -6.791209       94.727535      1.3740002    
     31000   98.058229     -8.6031796      1.812528      -6.7906517      91.389238      1.3740002    
     32000   96.57902      -8.5756513      1.785186      -6.7904653      137.11983      1.3740002    
     33000   100.09329     -8.6408541      1.8501446     -6.7907096      19.68957       1.3740002    
     34000   98.443435     -8.6100947      1.8196482     -6.7904465      71.95515       1.3740002    
     35000   94.143264     -8.5308644      1.740163      -6.7907014      205.85596      1.3740002    
     36000   91.509922     -8.4821537      1.6914878     -6.790666       225.44478      1.3740002    
     37000   90.468136     -8.4627512      1.6722312     -6.79052        220.88111      1.3740002    
     38000   87.553278     -8.409248       1.6183524     -6.7908956      264.24357      1.3740002    
     39000   90.009135     -8.4547261      1.6637469     -6.7909792      231.22605      1.3740002    
     40000   96.918481     -8.5823308      1.7914607     -6.7908701      78.922328      1.3740002    
     41000   97.392369     -8.5912535      1.8002201     -6.7910334      41.549642      1.3740002    
     42000   94.865493     -8.543963       1.7535128     -6.7904502      113.13223      1.3740002    
     43000   93.910021     -8.5264091      1.7358517     -6.7905574      134.60323      1.3740002    
     44000   97.853334     -8.5994127      1.8087407     -6.7906721      16.30086       1.3740002    
     45000   92.402334     -8.4987402      1.7079833     -6.7907569      288.10275      1.3740002    
     46000   97.156615     -8.5866905      1.7958624     -6.7908281      53.375574      1.3740002    
     47000   94.241467     -8.5323649      1.7419782     -6.7903867      102.80043      1.3740002    
     48000   90.090686     -8.4559889      1.6652543     -6.7907346      250.01121      1.3740002    
     49000   90.994603     -8.4732247      1.6819625     -6.7912622      87.011926      1.3740002    
     50000   97.217207     -8.5876712      1.7969824     -6.7906888      64.702738      1.3740002    
     51000   96.81623      -8.5805087      1.7895706     -6.7909381      68.075493      1.3740002    
     52000   90.854614     -8.4703242      1.6793749     -6.7909493      217.85692      1.3740002    
     53000   95.05792      -8.547473       1.7570697     -6.7904033      115.01192      1.3740002    
     54000   92.98966      -8.5091849      1.7188395     -6.7903454      180.08793      1.3740002    
     55000   101.73138     -8.6714557      1.8804233     -6.7910324     -41.179017      1.3740002    
     56000   97.528684     -8.5935369      1.8027398     -6.7907971      54.127256      1.3740002    
     57000   89.079745     -8.4374607      1.6465679     -6.7908928      230.43068      1.3740002    
     58000   94.503197     -8.5372327      1.7468161     -6.7904166      143.85226      1.3740002    
     59000   83.283397     -8.3300184      1.539427      -6.7905913      391.44051      1.3740002    
     60000   91.035533     -8.4733374      1.6827191     -6.7906184      134.61862      1.3740002    
     61000   94.599327     -8.5392819      1.7485929     -6.7906889      106.75984      1.3740002    
     62000   98.256382     -8.6068865      1.8161907     -6.7906958      40.954651      1.3740002    
     63000   92.19714      -8.4946645      1.7041904     -6.7904741      154.19794      1.3740002    
     64000   91.794623     -8.4875671      1.6967502     -6.7908169      159.16011      1.3740002    
     65000   95.259694     -8.5516253      1.7607993     -6.790826       71.939074      1.3740002    
     66000   91.305008     -8.478369       1.6877001     -6.7906689      123.25388      1.3740002    
     67000   106.4843      -8.7590187      1.9682771     -6.7907415     -156.27127      1.3740002    
     68000   103.13461     -8.6970396      1.9063609     -6.7906787     -86.666168      1.3740002    
     69000   98.243763     -8.6063945      1.8159574     -6.7904371      33.867466      1.3740002    
     70000   103.24396     -8.6990001      1.9083822     -6.7906179     -51.421399      1.3740002    
     71000   101.64669     -8.6694463      1.8788578     -6.7905885     -24.050734      1.3740002    
     72000   97.270061     -8.5883532      1.7979593     -6.7903938      67.740852      1.3740002    
     73000   96.714907     -8.5781065      1.7876977     -6.7904087      108.66005      1.3740002    
     74000   88.022924     -8.4175964      1.6270334     -6.790563       346.91107      1.3740002    
     75000   93.739405     -8.5233665      1.732698      -6.7906685      80.56313       1.3740002    
     76000   96.824584     -8.580587       1.7897251     -6.790862       85.558022      1.3740002    
     77000   95.722697     -8.5599104      1.7693575     -6.7905529      34.098958      1.3740002    
     78000   95.224176     -8.5508949      1.7601428     -6.7907522      100.84209      1.3740002    
     79000   85.329383     -8.3677778      1.5772454     -6.7905324      360.34093      1.3740002    
     80000   92.534738     -8.5014521      1.7104307     -6.7910215      114.68392      1.3740002    
     81000   101.55307     -8.6679064      1.8771273     -6.7907791     -59.781955      1.3740002    
     82000   91.519046     -8.4823624      1.6916564     -6.790706       191.13491      1.3740002    
     83000   101.64778     -8.6696765      1.878878      -6.7907984     -45.824828      1.3740002    
     84000   91.305505     -8.4785573      1.6877093     -6.790848       243.70017      1.3740002    
     85000   87.965111     -8.4169491      1.6259648     -6.7909843      267.4034       1.3740002    
     86000   94.925007     -8.5451888      1.7546129     -6.7905759      142.71619      1.3740002    
     87000   97.527554     -8.5934452      1.8027189     -6.7907263      149.76702      1.3740002    
     88000   96.783983     -8.5795178      1.7889746     -6.7905432      80.809552      1.3740002    
     89000   96.647913     -8.5769614      1.7864594     -6.790502       66.902721      1.3740002    
     90000   86.608487     -8.3914131      1.6008887     -6.7905245      287.95214      1.3740002    
     91000   91.672433     -8.4852295      1.6944917     -6.7907378      254.09065      1.3740002    
     92000   91.015954     -8.4729936      1.6823572     -6.7906365      211.9535       1.3740002    
     93000   97.031675     -8.5841327      1.7935529     -6.7905797      57.41938       1.3740002    
     94000   98.964251     -8.6203297      1.8292751     -6.7910546      0.87544254     1.3740002    
     95000   93.21204      -8.5137168      1.7229501     -6.7907667      144.52641      1.3740002    
     96000   91.679452     -8.4853755      1.6946214     -6.7907541      179.02079      1.3740002    
     97000   104.19157     -8.7164277      1.9258978     -6.7905299     -47.697516      1.3740002    
     98000   94.901759     -8.544969       1.7541832     -6.7907858      59.433916      1.3740002    
     99000   92.116427     -8.4934876      1.7026985     -6.7907891      168.32578      1.3740002    
    100000   95.247919     -8.5514447      1.7605817     -6.790863       92.603117      1.3740002    
    101000   97.409072     -8.591437       1.8005288     -6.7909081      126.22289      1.3740002    
    102000   97.160307     -8.5864651      1.7959306     -6.7905344      41.402865      1.3740002    
    103000   90.790312     -8.4690256      1.6781863     -6.7908393      215.88002      1.3740002    
    104000   99.674658     -8.6331082      1.8424064     -6.7907018      34.19724       1.3740002    
    105000   90.086025     -8.4559275      1.6651682     -6.7907593      240.89217      1.3740002    
    106000   86.844601     -8.3958486      1.605253      -6.7905956      311.05648      1.3740002    
    107000   94.342558     -8.534277       1.7438468     -6.7904302      127.04339      1.3740002    
    108000   92.877314     -8.5071794      1.7167629     -6.7904164      161.02638      1.3740002    
    109000   95.265149     -8.5513517      1.7609001     -6.7904516      80.00639       1.3740002    
    110000   99.670723     -8.6330453      1.8423337     -6.7907116      39.248262      1.3740002    
    111000   97.922755     -8.6006753      1.8100239     -6.7906514      9.495851       1.3740002    
    112000   92.856072     -8.5071116      1.7163703     -6.7907413      136.19747      1.3740002    
    113000   100.80941     -8.6540333      1.8633814     -6.7906519     -32.879856      1.3740002    
    114000   90.511691     -8.4635442      1.6730363     -6.7905079      194.11187      1.3740002    
    115000   95.929058     -8.5639492      1.773172      -6.7907772      78.467446      1.3740002    
    116000   101.9355      -8.6748152      1.8841962     -6.790619      -44.120712      1.3740002    
    117000   97.007202     -8.5837088      1.7931006     -6.7906082      64.645495      1.3740002    
    118000   90.771522     -8.4682655      1.677839      -6.7904265      188.98991      1.3740002    
    119000   100.77909     -8.6531633      1.862821      -6.7903423      42.580831      1.3740002    
    120000   104.10746     -8.7148135      1.9243431     -6.7904704     -80.107133      1.3740002    
    121000   96.490855     -8.5742201      1.7835563     -6.7906638      67.65946       1.3740002    
    122000   95.53146      -8.556557       1.7658227     -6.7907343      101.15699      1.3740002    
    123000   100.07586     -8.6405885      1.8498224     -6.7907662     -61.900243      1.3740002    
    124000   98.705711     -8.6152672      1.8244962     -6.7907711      18.504515      1.3740002    
    125000   92.241768     -8.4955342      1.7050154     -6.7905188      102.38996      1.3740002    
    126000   98.764754     -8.616346       1.8255875     -6.7907584      51.217275      1.3740002    
    127000   97.490201     -8.5925012      1.8020284     -6.7904727      23.777091      1.3740002    
    128000   92.204209     -8.4945646      1.7043211     -6.7902435      187.96842      1.3740002    
    129000   95.856254     -8.5624713      1.7718262     -6.790645       122.10841      1.3740002    
    130000   98.643109     -8.6140445      1.823339      -6.7907054      65.339135      1.3740002    
    131000   92.105091     -8.4932136      1.702489      -6.7907246      146.25261      1.3740002    
    132000   93.495945     -8.5189258      1.7281978     -6.790728       86.711867      1.3740002    
    133000   100.74284     -8.6532288      1.862151      -6.7910779     -59.439182      1.3740002    
    134000   92.711041     -8.504206       1.7136895     -6.7905165      164.77222      1.3740002    
    135000   92.467347     -8.5000687      1.709185      -6.7908837      256.6385       1.3740002    
    136000   95.594957     -8.5572445      1.7669964     -6.7902481      214.5029       1.3740002    
    137000   95.528262     -8.5564081      1.7657636     -6.7906445      85.728158      1.3740002    
    138000   97.343099     -8.5901101      1.7993094     -6.7908008      33.114832      1.3740002    
    139000   90.53241      -8.4642462      1.6734192     -6.790827       281.5118       1.3740002    
    140000   96.024398     -8.5657302      1.7749342     -6.7907959      82.796484      1.3740002    
    141000   98.111227     -8.6039451      1.8135076     -6.7904375      86.709345      1.3740002    
    142000   104.91467     -8.7300693      1.9392639     -6.7908054     -88.712998      1.3740002    
    143000   90.345806     -8.4604819      1.66997       -6.7905119      230.96409      1.3740002    
    144000   87.926069     -8.4160602      1.6252431     -6.7908171      253.02515      1.3740002    
    145000   93.517079     -8.5194907      1.7285885     -6.7909022      134.51638      1.3740002    
    146000   97.058374     -8.5847862      1.7940465     -6.7907397      78.232369      1.3740002    
    147000   99.77718      -8.6351095      1.8443014     -6.7908081      7.1104895      1.3740002    
    148000   99.257465     -8.625348       1.8346949     -6.7906531     -1.4821455      1.3740002    
    149000   92.747488     -8.5050616      1.7143632     -6.7906984      151.68725      1.3740002    
    150000   93.058033     -8.5109007      1.7201034     -6.7907973      85.475869      1.3740002    
    151000   96.291847     -8.570419       1.7798778     -6.7905411      152.86422      1.3740002    
    152000   97.249712     -8.5883559      1.7975832     -6.7907727      142.12951      1.3740002    
    153000   93.417521     -8.517481       1.7267482     -6.7907328      134.72284      1.3740002    
    154000   96.493858     -8.574368       1.7836118     -6.7907562      60.465805      1.3740002    
    155000   93.212092     -8.5137042      1.722951      -6.7907532      143.78943      1.3740002    
    156000   89.509115     -8.4450518      1.6545045     -6.7905473      207.07656      1.3740002    
    157000   96.749441     -8.5788842      1.7883361     -6.7905481      155.43529      1.3740002    
    158000   92.837341     -8.5067847      1.7160241     -6.7907606      161.20014      1.3740002    
    159000   98.220979     -8.6063469      1.8155363     -6.7908106      60.56443       1.3740002    
    160000   91.889705     -8.4888826      1.6985078     -6.7903749      210.60053      1.3740002    
    161000   90.676943     -8.4664781      1.6760908     -6.7903873      227.22581      1.3740002    
    162000   93.927339     -8.5264687      1.7361718     -6.7902969      118.69689      1.3740002    
    163000   95.383146     -8.5537917      1.7630812     -6.7907105      0.30523767     1.3740002    
    164000   100.345       -8.6454685      1.8547972     -6.7906713     -4.2267676      1.3740002    
    165000   95.487653     -8.5557505      1.765013      -6.7907375      67.003057      1.3740002    
    166000   98.349483     -8.6084082      1.8179116     -6.7904966      130.67913      1.3740002    
    167000   96.712481     -8.5783795      1.7876529     -6.7907266      38.981602      1.3740002    
    168000   90.953653     -8.4717807      1.6812056     -6.7905751      164.48983      1.3740002    
    169000   94.803658     -8.5429022      1.7523699     -6.7905324      178.85838      1.3740002    
    170000   88.938179     -8.4346033      1.6439511     -6.7906522      207.14487      1.3740002    
    171000   88.959797     -8.4348327      1.6443507     -6.7904819      278.18917      1.3740002    
    172000   89.065465     -8.4370365      1.6463039     -6.7907326      190.65125      1.3740002    
    173000   92.978853     -8.5093731      1.7186398     -6.7907333      131.1333       1.3740002    
    174000   97.078333     -8.5851678      1.7944154     -6.7907524      109.69273      1.3740002    
    175000   98.85177      -8.6176475      1.827196      -6.7904515      71.875064      1.3740002    
    176000   94.494389     -8.537328       1.7466533     -6.7906747      253.73724      1.3740002    
    177000   93.027763     -8.5103627      1.7195439     -6.7908189      166.14422      1.3740002    
    178000   93.22385      -8.513613       1.7231684     -6.7904446      154.15091      1.3740002    
    179000   95.789406     -8.5611281      1.7705906     -6.7905374      61.991217      1.3740002    
    180000   88.435525     -8.4252851      1.63466       -6.7906251      314.95314      1.3740002    
    181000   95.932003     -8.563886       1.7732264     -6.7906596      115.02058      1.3740002    
    182000   97.284461     -8.5888506      1.7982255     -6.7906251      15.117343      1.3740002    
    183000   97.885161     -8.5999735      1.809329      -6.7906445      30.016785      1.3740002    
    184000   91.196675     -8.4762948      1.6856976     -6.7905971      201.87555      1.3740002    
    185000   89.939557     -8.452865       1.6624608     -6.7904042      273.67914      1.3740002    
    186000   94.959269     -8.5457264      1.7552462     -6.7904802      154.32693      1.3740002    
    187000   102.40252     -8.6832418      1.8928287     -6.7904132      2.1859388      1.3740002    
    188000   91.002368     -8.47276        1.682106      -6.790654       150.80768      1.3740002    
    189000   95.110684     -8.5487691      1.758045      -6.7907241      22.942424      1.3740002    
    190000   97.109748     -8.5858933      1.7949961     -6.7908972      50.179227      1.3740002    
    191000   93.179365     -8.5131955      1.7223461     -6.7908494      111.74668      1.3740002    
    192000   90.00699      -8.454174       1.6637073     -6.7904667      235.90636      1.3740002    
    193000   94.875258     -8.5442003      1.7536933     -6.790507       77.985398      1.3740002    
    194000   100.73381     -8.6528047      1.8619839     -6.7908208      58.472733      1.3740002    
    195000   105.03806     -8.7320793      1.9415446     -6.7905347     -166.01335      1.3740002    
    196000   96.19654      -8.568777       1.7781162     -6.7906608      137.95065      1.3740002    
    197000   94.947294     -8.5455482      1.7550248     -6.7905233      94.786173      1.3740002    
    198000   98.496216     -8.6113857      1.8206238     -6.7907619     -1.0454831      1.3740002    
    199000   88.823419     -8.4324291      1.6418299     -6.7905992      223.85916      1.3740002    
    200000   89.240812     -8.4402418      1.6495451     -6.7906967      161.78573      1.3740002    
    201000   88.183311     -8.4205308      1.629998      -6.7905328      280.26554      1.3740002    
    202000   91.834597     -8.4880292      1.6974891     -6.79054        200.51179      1.3740002    
    203000   98.02498      -8.6026077      1.8119134     -6.7906943      36.980525      1.3740002    
    204000   93.464415     -8.5183832      1.727615      -6.7907681      101.36151      1.3740002    
    205000   92.172942     -8.4946895      1.7037432     -6.7909464      138.4562       1.3740002    
    206000   91.278314     -8.4777715      1.6872067     -6.7905649      222.90617      1.3740002    
    207000   91.469067     -8.481526       1.6907326     -6.7907934      159.76433      1.3740002    
    208000   99.777942     -8.6349406      1.8443155     -6.7906251      18.345966      1.3740002    
    209000   93.12314      -8.511512       1.7213068     -6.7902052      225.6316       1.3740002    
    210000   93.452402     -8.5179927      1.727393      -6.7905998      209.58588      1.3740002    
    211000   95.193813     -8.5499565      1.7595816     -6.790375       128.18829      1.3740002    
    212000   100.07697     -8.6403966      1.8498427     -6.7905539      1.0944855      1.3740002    
    213000   94.693494     -8.5409675      1.7503335     -6.790634       83.805583      1.3740002    
    214000   90.095722     -8.4562428      1.6653474     -6.7908953      192.08002      1.3740002    
    215000   93.583172     -8.5204682      1.7298101     -6.7906581      138.21077      1.3740002    
    216000   93.924034     -8.5269829      1.7361107     -6.7908722      140.39583      1.3740002    
    217000   95.700031     -8.5593297      1.7689386     -6.7903911      230.76362      1.3740002    
    218000   95.925154     -8.5633651      1.7730998     -6.7902653      114.70624      1.3740002    
    219000   90.759255     -8.4681773      1.6776123     -6.790565       160.2061       1.3740002    
    220000   98.252783     -8.6067436      1.8161242     -6.7906195      91.906035      1.3740002    
    221000   95.363293     -8.5532062      1.7627143     -6.7904919      94.19612       1.3740002    
    222000   96.193442     -8.5686961      1.7780589     -6.7906372      147.23752      1.3740002    
    223000   88.056718     -8.4183325      1.6276581     -6.7906744      266.54447      1.3740002    
    224000   98.868538     -8.6185045      1.8275059     -6.7909986     -25.650565      1.3740002    
    225000   94.562301     -8.5384157      1.7479086     -6.7905072      150.4295       1.3740002    
    226000   104.56312     -8.7236273      1.9327656     -6.7908617     -89.492042      1.3740002    
    227000   90.962843     -8.4723431      1.6813755     -6.7909676      193.66167      1.3740002    
    228000   94.829857     -8.544076       1.7528541     -6.7912219      56.379002      1.3740002    
    229000   98.504048     -8.6116024      1.8207686     -6.7908338     -77.957029      1.3740002    
    230000   97.466751     -8.5923194      1.801595      -6.7907244      49.436979      1.3740002    
    231000   94.504964     -8.5377034      1.7468487     -6.7908547      181.8983       1.3740002    
    232000   87.611822     -8.4102729      1.6194345     -6.7908384      302.27391      1.3740002    
    233000   97.825393     -8.59898        1.8082242     -6.7907558      24.571453      1.3740002    
    234000   92.682096     -8.5037447      1.7131545     -6.7905902      186.53977      1.3740002    
    235000   94.877527     -8.5445602      1.7537353     -6.7908249      150.03374      1.3740002    
    236000   92.936491     -8.5090263      1.7178568     -6.7911696      177.03408      1.3740002    
    237000   99.821397     -8.6356235      1.8451187     -6.7905048      47.364924      1.3740002    
    238000   95.049951     -8.5475956      1.7569224     -6.7906732      56.758725      1.3740002    
    239000   98.198243     -8.6055669      1.815116      -6.7904508      20.557227      1.3740002    
    240000   92.966249     -8.5092085      1.7184068     -6.7908017      170.33755      1.3740002    
    241000   94.848105     -8.5439239      1.7531914     -6.7907324      169.40634      1.3740002    
    242000   94.85619      -8.5441436      1.7533408     -6.7908028      125.38539      1.3740002    
    243000   95.715316     -8.5595395      1.7692211     -6.7903184      163.49219      1.3740002    
    244000   96.962359     -8.5831119      1.7922717     -6.7908402      13.194747      1.3740002    
    245000   93.530495     -8.5191456      1.7288364     -6.7903092      140.99681      1.3740002    
    246000   95.218038     -8.5508034      1.7600293     -6.7907741      112.75884      1.3740002    
    247000   88.413862     -8.4245912      1.6342596     -6.7903316      242.37523      1.3740002    
    248000   97.109241     -8.5855659      1.7949867     -6.7905791      138.96957      1.3740002    
    249000   94.021205     -8.5284979      1.7379068     -6.790591       123.73388      1.3740002    
    250000   92.966285     -8.5089146      1.7184075     -6.7905072      253.32818      1.3740002    
    251000   91.202661     -8.4765907      1.6858083     -6.7907824      134.87853      1.3740002    
    252000   96.398034     -8.5725142      1.7818406     -6.7906736      40.693214      1.3740002    
    253000   97.120984     -8.5856817      1.7952038     -6.7904779      62.761552      1.3740002    
    254000   94.394351     -8.5355772      1.7448041     -6.790773       58.285811      1.3740002    
    255000   96.481565     -8.5740641      1.7833846     -6.7906795      36.971884      1.3740002    
    256000   93.381526     -8.5167452      1.7260829     -6.7906623      171.64838      1.3740002    
    257000   93.883128     -8.5261839      1.7353546     -6.7908293      211.69086      1.3740002    
    258000   99.497587     -8.6294755      1.8391334     -6.7903421      81.165977      1.3740002    
    259000   90.813092     -8.4690396      1.6786074     -6.7904322      217.79194      1.3740002    
    260000   97.943704     -8.6011583      1.8104111     -6.7907472      82.33738       1.3740002    
    261000   99.926737     -8.637848       1.8470659     -6.7907822      37.358351      1.3740002    
    262000   87.550838     -8.4088116      1.6183073     -6.7905043      273.82529      1.3740002    
    263000   89.593596     -8.4464208      1.656066      -6.7903548      155.26359      1.3740002    
    264000   92.110772     -8.4934137      1.702594      -6.7908197      128.21375      1.3740002    
    265000   97.946465     -8.6010017      1.8104621     -6.7905395      62.906431      1.3740002    
    266000   93.914588     -8.5265694      1.7359361     -6.7906333      136.46128      1.3740002    
    267000   97.786818     -8.5979992      1.8075112     -6.7904881      5.6169574      1.3740002    
    268000   94.188477     -8.5315606      1.7409987     -6.7905619      152.68404      1.3740002    
    269000   93.47017      -8.5187167      1.7277214     -6.7909953      157.18192      1.3740002    
    270000   98.325071     -8.6081962      1.8174604     -6.7907358      21.698359      1.3740002    
    271000   93.810237     -8.5244595      1.7340073     -6.7904523      216.31891      1.3740002    
    272000   97.499101     -8.5929252      1.802193      -6.7907322      63.096368      1.3740002    
    273000   97.208045     -8.5874178      1.796813      -6.7906048      50.258641      1.3740002    
    274000   90.18851      -8.4576164      1.6670625     -6.7905539      256.45151      1.3740002    
    275000   90.676533     -8.4668409      1.6760832     -6.7907576      166.13155      1.3740002    
    276000   98.217958     -8.6060572      1.8154805     -6.7905768      61.188041      1.3740002    
    277000   99.842605     -8.6361954      1.8455108     -6.7906847     -64.701841      1.3740002    
    278000   86.759679     -8.39448        1.6036833     -6.7907967      304.23975      1.3740002    
    279000   100.0595      -8.6402298      1.8495198     -6.7907099      32.273094      1.3740002    
    280000   103.50347     -8.7038462      1.9131789     -6.7906673     -32.88547       1.3740002    
    281000   94.21731      -8.5324025      1.7415317     -6.7908708      61.662855      1.3740002    
    282000   96.920698     -8.5823838      1.7915016     -6.7908822     -5.9505656      1.3740002    
    283000   104.49977     -8.7223519      1.9315947     -6.7907572     -108.97488      1.3740002    
    284000   94.682356     -8.5409247      1.7501277     -6.7907971      61.206685      1.3740002    
    285000   94.771099     -8.5423188      1.751768      -6.7905508      94.033383      1.3740002    
    286000   96.781156     -8.579689       1.7889223     -6.7907667      22.291973      1.3740002    
    287000   99.105702     -8.6225344      1.8318897     -6.7906447     -3.7696453      1.3740002    
    288000   89.311721     -8.441754       1.6508558     -6.7908982      239.90191      1.3740002    
    289000   94.239522     -8.5324905      1.7419422     -6.7905482      163.45854      1.3740002    
    290000   98.157296     -8.6048544      1.8143592     -6.7904953      100.13682      1.3740002    
    291000   83.356096     -8.3315261      1.5407708     -6.7907553      319.94862      1.3740002    
    292000   90.124716     -8.4566829      1.6658833     -6.7907996      188.3557       1.3740002    
    293000   89.35889      -8.4422175      1.6517277     -6.7904898      212.71795      1.3740002    
    294000   95.910185     -8.5636553      1.7728231     -6.7908322      85.503786      1.3740002    
    295000   90.005611     -8.4543823      1.6636818     -6.7907005      207.54473      1.3740002    
    296000   89.225919     -8.4400347      1.6492698     -6.7907649      256.42212      1.3740002    
    297000   96.444486     -8.5734918      1.7826992     -6.7907926      76.651686      1.3740002    
    298000   98.819658     -8.6175816      1.8266024     -6.7909792     -14.530008      1.3740002    
    299000   91.124319     -8.474718       1.6843602     -6.7903578      253.56865      1.3740002    
    300000   94.936662     -8.5453088      1.7548283     -6.7904804      131.07596      1.3740002    
    301000   100.50961     -8.6483299      1.8578398     -6.7904901      24.991426      1.3740002    
    302000   94.936632     -8.5452093      1.7548278     -6.7903816      102.24604      1.3740002    
    303000   97.36511      -8.5903563      1.7997162     -6.7906401      32.943791      1.3740002    
    304000   92.160088     -8.4938346      1.7035056     -6.790329       185.74691      1.3740002    
    305000   98.03796      -8.6029463      1.8121533     -6.7907929      68.297851      1.3740002    
    306000   95.997535     -8.5648345      1.7744377     -6.7903968      115.79688      1.3740002    
    307000   96.388691     -8.5721462      1.7816679     -6.7904783      88.086994      1.3740002    
    308000   90.503979     -8.4630524      1.6728937     -6.7901587      175.54299      1.3740002    
    309000   90.677901     -8.4665347      1.6761085     -6.7904262      242.23477      1.3740002    
    310000   95.863215     -8.5625426      1.7719549     -6.7905877      103.21728      1.3740002    
    311000   98.935151     -8.619212       1.8287372     -6.7904748      117.44608      1.3740002    
    312000   94.301456     -8.53355        1.743087      -6.790463       144.45271      1.3740002    
    313000   98.922169     -8.6189234      1.8284972     -6.7904261      27.012353      1.3740002    
    314000   96.657729     -8.577032       1.7866409     -6.7903912      148.51425      1.3740002    
    315000   98.047799     -8.6032668      1.8123352     -6.7909316      52.346083      1.3740002    
    316000   96.072987     -8.5668612      1.7758324     -6.7910288      147.30125      1.3740002    
    317000   87.823193     -8.4142152      1.6233415     -6.7908737      226.26266      1.3740002    
    318000   90.433142     -8.4620528      1.6715843     -6.7904685      263.78833      1.3740002    
    319000   94.745365     -8.5420284      1.7512923     -6.7907361      91.938102      1.3740002    
    320000   94.538053     -8.5382151      1.7474603     -6.7907548      121.06352      1.3740002    
    321000   92.376112     -8.4978649      1.7074986     -6.7903664      172.50587      1.3740002    
    322000   96.265461     -8.5701265      1.7793901     -6.7907364      125.09781      1.3740002    
    323000   91.127679     -8.4750255      1.6844223     -6.7906032      221.58281      1.3740002    
    324000   91.464223     -8.4814904      1.6906431     -6.7908473      124.84063      1.3740002    
    325000   94.57814      -8.5386942      1.7482013     -6.7904928      100.7295       1.3740002    
    326000   104.44683     -8.7213998      1.9306162     -6.7907837     -143.14192      1.3740002    
    327000   98.724682     -8.615531       1.8248468     -6.7906842      72.26702       1.3740002    
    328000   101.08271     -8.6590955      1.868433      -6.7906625     -13.19937       1.3740002    
    329000   103.2303      -8.6984951      1.9081296     -6.7903656     -103.52774      1.3740002    
    330000   87.381298     -8.4057596      1.6151735     -6.7905862      255.68186      1.3740002    
    331000   101.20486     -8.6617972      1.8706909     -6.7911063     -41.956893      1.3740002    
    332000   93.561368     -8.5204751      1.7294071     -6.791068       204.1082       1.3740002    
    333000   97.026        -8.5841369      1.7934481     -6.7906888      60.354622      1.3740002    
    334000   90.829092     -8.4695153      1.6789032     -6.7906121      198.81033      1.3740002    
    335000   97.856796     -8.599406       1.8088047     -6.7906013      33.757737      1.3740002    
    336000   87.443625     -8.4071592      1.6163255     -6.7908336      284.27467      1.3740002    
    337000   98.948499     -8.6197567      1.8289839     -6.7907728      10.828512      1.3740002    
    338000   104.79249     -8.7276361      1.9370055     -6.7906306     -133.384        1.3740002    
    339000   96.95052      -8.583015       1.7920529     -6.7909622      27.730482      1.3740002    
    340000   93.595422     -8.520891       1.7300366     -6.7908545      119.84062      1.3740002    
    341000   91.855659     -8.4886491      1.6978784     -6.7907707      137.1354       1.3740002    
    342000   91.10499      -8.4743193      1.6840029     -6.7903163      162.80101      1.3740002    
    343000   93.748906     -8.5232149      1.7328736     -6.7903413      181.52459      1.3740002    
    344000   92.4559       -8.4998185      1.7089734     -6.7908451      137.10168      1.3740002    
    345000   96.018518     -8.5655537      1.7748256     -6.7907281      131.10096      1.3740002    
    346000   86.782933     -8.3945333      1.6041132     -6.7904201      304.5869       1.3740002    
    347000   92.417641     -8.4986679      1.7082662     -6.7904017      78.720548      1.3740002    
    348000   103.81409     -8.7098503      1.9189204     -6.7909299     -84.617556      1.3740002    
    349000   86.710449     -8.3932804      1.6027734     -6.790507       281.59678      1.3740002    
    350000   94.850752     -8.5440935      1.7532403     -6.7908531      156.63694      1.3740002    
    351000   92.307697     -8.4968869      1.706234      -6.7906529      163.93582      1.3740002    
    352000   98.468115     -8.610595       1.8201044     -6.7904906      81.700813      1.3740002    
    353000   91.778718     -8.4871008      1.6964562     -6.7906445      272.95904      1.3740002    
    354000   93.708225     -8.5228776      1.7321216     -6.790756       136.7159       1.3740002    
    355000   95.854833     -8.5621765      1.7718        -6.7903765      184.69911      1.3740002    
    356000   93.851449     -8.5250275      1.734769      -6.7902585      155.79701      1.3740002    
    357000   91.329594     -8.4789781      1.6881545     -6.7908235      124.94061      1.3740002    
    358000   89.546863     -8.4459767      1.6552022     -6.7907745      266.27754      1.3740002    
    359000   96.972821     -8.5828297      1.7924651     -6.7903646      18.11125       1.3740002    
    360000   100.52089     -8.6485558      1.8580484     -6.7905074      20.801686      1.3740002    
    361000   96.792172     -8.5797429      1.7891259     -6.7906169      101.14791      1.3740002    
    362000   93.496687     -8.5191968      1.7282115     -6.7909853      136.66621      1.3740002    
    363000   98.004074     -8.6027481      1.811527      -6.7912211      36.807784      1.3740002    
    364000   91.631671     -8.4840423      1.6937382     -6.7903041      236.06419      1.3740002    
    365000   93.960258     -8.5271774      1.7367803     -6.7903971      214.54616      1.3740002    
    366000   94.48237      -8.5367891      1.7464311     -6.790358       259.77625      1.3740002    
    367000   92.375638     -8.4980507      1.7074898     -6.7905609      232.21867      1.3740002    
    368000   93.132195     -8.5121075      1.7214742     -6.7906333      177.37714      1.3740002    
    369000   96.95264      -8.5829156      1.7920921     -6.7908235      132.98857      1.3740002    
    370000   94.260122     -8.5328969      1.742323      -6.7905739      181.03681      1.3740002    
    371000   97.245135     -8.58773        1.7974986     -6.7902314      158.58527      1.3740002    
    372000   98.381176     -8.6089484      1.8184974     -6.790451       66.190665      1.3740002    
    373000   93.57704      -8.5203976      1.7296968     -6.7907008      106.31339      1.3740002    
    374000   99.646723     -8.6325368      1.84189       -6.7906468     -23.062628      1.3740002    
    375000   98.218049     -8.6063143      1.8154821     -6.7908321      28.055096      1.3740002    
    376000   96.734522     -8.5784818      1.7880603     -6.7904215      72.102639      1.3740002    
    377000   91.354578     -8.4790407      1.6886164     -6.7904243      158.99272      1.3740002    
    378000   90.742603     -8.4675806      1.6773045     -6.7902761      286.21562      1.3740002    
    379000   93.79807      -8.5243697      1.7337824     -6.7905874      118.46565      1.3740002    
    380000   99.834808     -8.6362358      1.8453666     -6.7908691      77.319578      1.3740002    
    381000   96.423493     -8.5736335      1.7823112     -6.7913223      40.320267      1.3740002    
    382000   96.722415     -8.5783807      1.7878365     -6.7905442      91.562959      1.3740002    
    383000   84.545438     -8.3529815      1.5627548     -6.7902267      306.05083      1.3740002    
    384000   99.835974     -8.6360684      1.8453882     -6.7906802     -44.431868      1.3740002    
    385000   94.583923     -8.5392429      1.7483082     -6.7909347      74.596624      1.3740002    
    386000   100.31246     -8.6447065      1.8541956     -6.7905109      11.086505      1.3740002    
    387000   96.851986     -8.5808373      1.7902316     -6.7906058      116.35057      1.3740002    
    388000   93.221266     -8.5138575      1.7231206     -6.7907369      146.53162      1.3740002    
    389000   94.426578     -8.5362335      1.7453998     -6.7908337      92.502254      1.3740002    
    390000   96.216702     -8.5693461      1.7784888     -6.7908572      41.126455      1.3740002    
    391000   94.237016     -8.5324092      1.7418959     -6.7905133      144.61421      1.3740002    
    392000   91.871691     -8.4886243      1.6981748     -6.7904496      174.07294      1.3740002    
    393000   92.096242     -8.4928669      1.7023254     -6.7905415      183.17301      1.3740002    
    394000   97.889345     -8.6001414      1.8094063     -6.7907351      63.97926       1.3740002    
    395000   92.672872     -8.5037961      1.712984      -6.7908121      136.58616      1.3740002    
    396000   92.032044     -8.4921589      1.7011388     -6.7910201      247.02113      1.3740002    
    397000   105.84844     -8.7471432      1.9565238     -6.7906194     -23.096682      1.3740002    
    398000   96.414722     -8.5729982      1.7821491     -6.7908491      60.242911      1.3740002    
    399000   84.405916     -8.3509319      1.5601759     -6.790756       350.59699      1.3740002    
    400000   97.555332     -8.5939572      1.8032323     -6.7907249      97.468563      1.3740002    
    401000   93.928747     -8.5268044      1.7361978     -6.7906066      118.39506      1.3740002    
    402000   90.03782      -8.4550406      1.6642771     -6.7907635      230.32976      1.3740002    
    403000   96.632417     -8.5768869      1.786173      -6.7907139      75.460819      1.3740002    
    404000   99.630276     -8.6323227      1.841586      -6.7907367      56.487801      1.3740002    
    405000   94.83476      -8.5436059      1.7529447     -6.7906612      123.73071      1.3740002    
    406000   98.136041     -8.6043625      1.8139663     -6.7903962      2.8398295      1.3740002    
    407000   91.269156     -8.4779913      1.6870374     -6.7909539      177.33924      1.3740002    
    408000   100.86672     -8.6550336      1.8644407     -6.7905929      47.606849      1.3740002    
    409000   94.364117     -8.5347299      1.7442453     -6.7904846      181.01586      1.3740002    
    410000   95.181399     -8.5498716      1.7593521     -6.7905195      177.09496      1.3740002    
    411000   94.833412     -8.5435042      1.7529198     -6.7905844      111.90235      1.3740002    
    412000   88.007571     -8.4174198      1.6267496     -6.7906702      246.43687      1.3740002    
    413000   100.08915     -8.6409246      1.850068      -6.7908566      33.45889       1.3740002    
    414000   95.955462     -8.5640319      1.77366       -6.7903718      37.368974      1.3740002    
    415000   97.217877     -8.5877883      1.7969947     -6.7907936      19.081196      1.3740002    
    416000   98.167303     -8.6049422      1.8145441     -6.790398       23.122924      1.3740002    
    417000   94.929971     -8.5452346      1.7547046     -6.79053        123.93461      1.3740002    
    418000   90.608985     -8.465575       1.6748347     -6.7907403      179.55966      1.3740002    
    419000   87.71335      -8.4120933      1.6213112     -6.7907822      276.11992      1.3740002    
    420000   92.918796     -8.5081802      1.7175297     -6.7906505      146.95139      1.3740002    
    421000   101.45965     -8.6664222      1.8754006     -6.7910216     -59.860077      1.3740002    
    422000   94.71369      -8.5409971      1.7507069     -6.7902903      189.50866      1.3740002    
    423000   98.17924      -8.6055017      1.8147648     -6.7907369      126.55979      1.3740002    
    424000   92.39047      -8.4982241      1.707764      -6.7904601      146.16302      1.3740002    
    425000   104.42387     -8.7213065      1.9301918     -6.7911147     -123.25661      1.3740002    
    426000   101.93559     -8.6749927      1.884198      -6.7907948     -89.349888      1.3740002    
    427000   106.34465     -8.756427       1.9656959     -6.7907311     -121.6533       1.3740002    
    428000   96.818437     -8.5801638      1.7896114     -6.7905524      132.57638      1.3740002    
    429000   94.397886     -8.5353559      1.7448695     -6.7904864      145.0404       1.3740002    
    430000   95.239816     -8.5510857      1.7604319     -6.7906538      118.76709      1.3740002    
    431000   88.712654     -8.4307382      1.6397825     -6.7909557      236.47256      1.3740002    
    432000   93.925271     -8.5266608      1.7361336     -6.7905272      119.3718       1.3740002    
    433000   94.517774     -8.5375395      1.7470855     -6.790454       144.68992      1.3740002    
    434000   93.755614     -8.5233367      1.7329976     -6.7903391      129.55175      1.3740002    
    435000   93.724131     -8.5231915      1.7324156     -6.7907759      212.12856      1.3740002    
    436000   105.00563     -8.7315647      1.9409451     -6.7906197     -108.72707      1.3740002    
    437000   87.244104     -8.4031427      1.6126375     -6.7905052      261.77313      1.3740002    
    438000   93.653629     -8.521845       1.7311125     -6.7907325      142.6581       1.3740002    
    439000   97.003522     -8.5838377      1.7930326     -6.7908051      53.839777      1.3740002    
    440000   95.140024     -8.5493263      1.7585873     -6.790739       111.46601      1.3740002    
    441000   99.179231     -8.6238253      1.8332488     -6.7905765     -12.364157      1.3740002    
    442000   92.089013     -8.4928816      1.7021918     -6.7906898      171.4348       1.3740002    
    443000   97.398042     -8.5912187      1.800325      -6.7908938      21.59468       1.3740002    
    444000   97.930428     -8.6007338      1.8101657     -6.7905681      67.196263      1.3740002    
    445000   94.905529     -8.5446737      1.7542529     -6.7904208      161.38376      1.3740002    
    446000   96.742842     -8.5786607      1.7882141     -6.7904466      74.114037      1.3740002    
    447000   90.524463     -8.4640017      1.6732723     -6.7907294      184.2625       1.3740002    
    448000   93.968987     -8.5275989      1.7369416     -6.7906573      117.70146      1.3740002    
    449000   94.91231      -8.5453845      1.7543782     -6.7910063      108.77032      1.3740002    
    450000   95.942992     -8.5641841      1.7734295     -6.7907546      144.45827      1.3740002    
    451000   93.6906       -8.5225529      1.7317959     -6.790757       145.13006      1.3740002    
    452000   96.959323     -8.5830302      1.7922156     -6.7908146      47.688404      1.3740002    
    453000   93.955313     -8.5274118      1.7366889     -6.7907229      95.020913      1.3740002    
    454000   99.045073     -8.6215293      1.830769      -6.7907602      80.45272       1.3740002    
    455000   91.198646     -8.4762215      1.6857341     -6.7904874      150.06339      1.3740002    
    456000   100.05689     -8.6400044      1.8494716     -6.7905329     -14.26825       1.3740002    
    457000   96.95645      -8.5827576      1.7921625     -6.7905951      60.805488      1.3740002    
    458000   95.980949     -8.5649459      1.7741311     -6.7908148      194.93619      1.3740002    
    459000   99.449719     -8.6286481      1.8382486     -6.7903995      31.134685      1.3740002    
    460000   98.411161     -8.6098583      1.8190517     -6.7908066      9.6983441      1.3740002    
    461000   98.559603     -8.6124481      1.8217955     -6.7906526      49.471693      1.3740002    
    462000   94.614058     -8.5394392      1.7488652     -6.7905739      115.11853      1.3740002    
    463000   97.105927     -8.5855784      1.7949254     -6.790653       53.858501      1.3740002    
    464000   94.714553     -8.5413643      1.7507228     -6.7906414      90.293623      1.3740002    
    465000   97.068309     -8.5847198      1.7942301     -6.7904897      47.704564      1.3740002    
    466000   93.521763     -8.5194031      1.728675      -6.790728       133.32337      1.3740002    
    467000   92.137255     -8.49385        1.7030835     -6.7907665      223.29308      1.3740002    
    468000   99.782136     -8.6351289      1.844393      -6.7907359      39.358052      1.3740002    
    469000   97.562132     -8.594062       1.803358      -6.7907039      127.09249      1.3740002    
    470000   95.481619     -8.555629       1.7649014     -6.7907276      48.784428      1.3740002    
    471000   99.379954     -8.6276         1.836959      -6.790641       23.422254      1.3740002    
    472000   103.22634     -8.6985687      1.9080564     -6.7905123     -120.86672      1.3740002    
    473000   99.80208      -8.6355266      1.8447617     -6.7907649     -11.476167      1.3740002    
    474000   98.761833     -8.6163524      1.8255335     -6.7908188      9.2047407      1.3740002    
    475000   93.657975     -8.5220109      1.7311928     -6.7908181      130.70165      1.3740002    
    476000   96.745597     -8.5790896      1.788265      -6.7908245      50.895782      1.3740002    
    477000   98.159033     -8.604911       1.8143913     -6.7905197      53.252418      1.3740002    
    478000   96.505594     -8.5744596      1.7838288     -6.7906308      185.30306      1.3740002    
    479000   92.44061      -8.4990056      1.7086908     -6.7903148      169.78808      1.3740002    
    480000   99.435086     -8.6285375      1.8379781     -6.7905595      58.910766      1.3740002    
    481000   88.005864     -8.4172663      1.6267181     -6.7905483      333.22379      1.3740002    
    482000   88.05104      -8.4180994      1.6275531     -6.7905463      198.72534      1.3740002    
    483000   93.93255      -8.5271663      1.7362681     -6.7908981      113.62163      1.3740002    
    484000   89.938646     -8.4529849      1.662444      -6.7905409      303.11668      1.3740002    
    485000   95.344552     -8.5533473      1.7623678     -6.7909795      110.75136      1.3740002    
    486000   100.44545     -8.6473967      1.8566539     -6.7907428      32.477952      1.3740002    
    487000   97.899509     -8.600326       1.8095942     -6.7907318      104.78822      1.3740002    
    488000   91.068002     -8.4740592      1.6833192     -6.79074        249.41021      1.3740002    
    489000   95.964671     -8.5646276      1.7738302     -6.7907973      78.779723      1.3740002    
    490000   94.213949     -8.5325475      1.7414695     -6.7910779      113.74673      1.3740002    
    491000   90.100473     -8.4560942      1.6654352     -6.7906589      219.34815      1.3740002    
    492000   96.522589     -8.5748974      1.7841429     -6.7907545      9.8609783      1.3740002    
    493000   93.60359      -8.5206584      1.7301876     -6.7904709      133.37821      1.3740002    
    494000   92.647103     -8.5031171      1.7125076     -6.7906095      113.76287      1.3740002    
    495000   87.785844     -8.4132463      1.6226512     -6.7905951      186.22458      1.3740002    
    496000   95.514355     -8.556473       1.7655065     -6.7909664      70.869742      1.3740002    
    497000   93.201231     -8.513355       1.7227503     -6.7906047      158.61729      1.3740002    
    498000   95.453154     -8.5551998      1.7643753     -6.7908245      86.256615      1.3740002    
    499000   98.735782     -8.6153746      1.825052      -6.7903226      86.74574       1.3740002    
    500000   97.874915     -8.5998283      1.8091396     -6.7906887      54.319967      1.3740002    
    501000   98.513376     -8.6119271      1.820941      -6.7909861      1.174933       1.3740002    
    502000   87.50756      -8.4079436      1.6175073     -6.7904363      341.30979      1.3740002    
    503000   92.826412     -8.5066223      1.715822      -6.7908003      93.928151      1.3740002    
    504000   99.189636     -8.6242424      1.8334411     -6.7908012      8.2219514      1.3740002    
    505000   89.173992     -8.4392104      1.64831       -6.7909004      197.45126      1.3740002    
    506000   99.379931     -8.6274673      1.8369586     -6.7905087      12.426433      1.3740002    
    507000   95.427153     -8.5541696      1.7638946     -6.7902749      185.23894      1.3740002    
    508000   91.628637     -8.4840838      1.6936821     -6.7904017      200.15333      1.3740002    
    509000   93.317547     -8.5154812      1.7249003     -6.7905809      160.33633      1.3740002    
    510000   93.025378     -8.5102582      1.7194998     -6.7907584      90.632856      1.3740002    
    511000   99.691097     -8.6333997      1.8427103     -6.7906895      40.730627      1.3740002    
    512000   107.83082     -8.7837798      1.9931664     -6.7906134     -195.52032      1.3740002    
    513000   93.229441     -8.5143296      1.7232717     -6.7910579      149.99566      1.3740002    
    514000   93.933093     -8.5270666      1.7362781     -6.7907885      175.97483      1.3740002    
    515000   92.053055     -8.4922356      1.7015271     -6.7907084      162.89557      1.3740002    
    516000   93.244524     -8.513907       1.7235505     -6.7903565      109.57963      1.3740002    
    517000   95.273724     -8.5516111      1.7610586     -6.7905525      69.565434      1.3740002    
    518000   93.959255     -8.526849       1.7367617     -6.7900873      197.1014       1.3740002    
    519000   89.555007     -8.4459738      1.6553527     -6.790621       250.17749      1.3740002    
    520000   93.992783     -8.5280024      1.7373815     -6.790621       195.69248      1.3740002    
    521000   104.50681     -8.7223691      1.9317248     -6.7906443     -154.87221      1.3740002    
    522000   93.444767     -8.5175937      1.7272518     -6.7903419      141.62824      1.3740002    
    523000   97.273278     -8.5885036      1.7980188     -6.7904848      133.83884      1.3740002    
    524000   93.958716     -8.5271353      1.7367518     -6.7903836      82.98865       1.3740002    
    525000   95.707625     -8.5595751      1.769079      -6.7904962      56.518328      1.3740002    
    526000   93.797731     -8.5243883      1.7337761     -6.7906122      129.24864      1.3740002    
    527000   95.192506     -8.5502399      1.7595574     -6.7906825      108.67058      1.3740002    
    528000   96.170924     -8.568633       1.7776427     -6.7909903      20.009329      1.3740002    
    529000   93.919836     -8.5268033      1.7360331     -6.7907702      120.0575       1.3740002    
    530000   84.259337     -8.3479532      1.5574665     -6.7904867      308.39382      1.3740002    
    531000   96.029877     -8.5654539      1.7750355     -6.7904184      99.637307      1.3740002    
    532000   102.93926     -8.6935227      1.9027499     -6.7907728     -52.313454      1.3740002    
    533000   89.478136     -8.4449961      1.6539318     -6.7910642      282.76283      1.3740002    
    534000   95.436084     -8.5548428      1.7640597     -6.7907831      67.980486      1.3740002    
    535000   95.951921     -8.5641457      1.7735946     -6.7905512      170.03512      1.3740002    
    536000   90.681091     -8.4666409      1.6761675     -6.7904734      210.58658      1.3740002    
    537000   97.144997     -8.5859962      1.7956476     -6.7903486      88.529654      1.3740002    
    538000   92.460921     -8.4996732      1.7090662     -6.790607       228.5632       1.3740002    
    539000   103.36822     -8.7012645      1.9106789     -6.7905856     -95.281106      1.3740002    
    540000   92.038826     -8.4920324      1.7012641     -6.7907683      176.35896      1.3740002    
    541000   94.221273     -8.5322943      1.7416049     -6.7906894      151.60853      1.3740002    
    542000   92.98618      -8.5092736      1.7187752     -6.7904983      150.2099       1.3740002    
    543000   93.66962      -8.5222265      1.7314081     -6.7908184      135.10871      1.3740002    
    544000   95.702552     -8.5598706      1.7689852     -6.7908854      84.006462      1.3740002    
    545000   95.348767     -8.5531553      1.7624457     -6.7907096      88.933795      1.3740002    
    546000   95.069048     -8.5480248      1.7572754     -6.7907494      108.32358      1.3740002    
    547000   93.540487     -8.5193513      1.7290211     -6.7903302      119.98302      1.3740002    
    548000   95.036327     -8.547212       1.7566706     -6.7905415      171.61115      1.3740002    
    549000   96.957521     -8.5830819      1.7921823     -6.7908996      23.858969      1.3740002    
    550000   100.50741     -8.648547       1.8577992     -6.7907478     -70.373316      1.3740002    
    551000   94.063332     -8.5293484      1.7386855     -6.7906629      121.2598       1.3740002    
    552000   97.48108      -8.5925471      1.8018599     -6.7906872      18.185319      1.3740002    
    553000   101.27188     -8.6624944      1.8719298     -6.7905646     -13.724132      1.3740002    
    554000   93.315105     -8.5155045      1.7248551     -6.7906494      141.87266      1.3740002    
    555000   95.95743      -8.5639717      1.7736964     -6.7902753      154.57867      1.3740002    
    556000   94.014819     -8.5284622      1.7377888     -6.7906734      166.18028      1.3740002    
    557000   91.946799     -8.4902006      1.6995631     -6.7906375      197.85665      1.3740002    
    558000   93.039744     -8.5105343      1.7197653     -6.790769       139.24895      1.3740002    
    559000   98.782415     -8.6166959      1.825914      -6.7907819      40.121315      1.3740002    
    560000   94.284118     -8.5332715      1.7427666     -6.7905049      102.22392      1.3740002    
    561000   92.220434     -8.49513        1.704621      -6.7905089      278.07708      1.3740002    
    562000   95.362205     -8.5534089      1.7626941     -6.7907148      132.92102      1.3740002    
    563000   95.179316     -8.5501744      1.7593136     -6.7908608      89.901491      1.3740002    
    564000   95.339724     -8.5529913      1.7622786     -6.7907127      138.75145      1.3740002    
    565000   99.255534     -8.6254174      1.8346592     -6.7907582     -14.631745      1.3740002    
    566000   94.81762      -8.5434052      1.7526279     -6.7907772      70.551609      1.3740002    
    567000   100.66448     -8.6513389      1.8607025     -6.7906364     -66.811619      1.3740002    
    568000   97.006709     -8.5839051      1.7930915     -6.7908136      169.38786      1.3740002    
    569000   93.594217     -8.5206578      1.7300143     -6.7906435      181.68754      1.3740002    
    570000   98.243675     -8.6066507      1.8159558     -6.7906949      67.048398      1.3740002    
    571000   88.504532     -8.426756       1.6359355     -6.7908204      328.42463      1.3740002    
    572000   98.65009      -8.6137791      1.8234681     -6.790311       57.812255      1.3740002    
    573000   93.249893     -8.5144008      1.7236497     -6.790751       197.65523      1.3740002    
    574000   91.069691     -8.474151       1.6833504     -6.7908006      151.9148       1.3740002    
    575000   94.574092     -8.5387334      1.7481265     -6.7906069      132.9828       1.3740002    
    576000   95.334575     -8.5527263      1.7621834     -6.7905429      85.836142      1.3740002    
    577000   103.35791     -8.7010204      1.9104883     -6.7905321     -66.526632      1.3740002    
    578000   94.06288      -8.5288941      1.7386771     -6.790217       132.45326      1.3740002    
    579000   100.36185     -8.645932       1.8551085     -6.7908235      9.6220315      1.3740002    
    580000   90.480535     -8.4631582      1.6724604     -6.7906978      179.87307      1.3740002    
    581000   94.645782     -8.5401993      1.7494516     -6.7907477      84.891118      1.3740002    
    582000   90.416553     -8.4618811      1.6712777     -6.7906034      220.07427      1.3740002    
    583000   87.649222     -8.4105853      1.6201258     -6.7904595      342.87702      1.3740002    
    584000   93.287244     -8.5151297      1.7243401     -6.7907895      124.88636      1.3740002    
    585000   97.287999     -8.5890977      1.7982909     -6.7908068      66.994919      1.3740002    
    586000   93.1902       -8.5133584      1.7225464     -6.790812       150.90379      1.3740002    
    587000   87.052201     -8.3996231      1.6090904     -6.7905328      397.74662      1.3740002    
    588000   95.440743     -8.5545523      1.7641459     -6.7904065      100.79259      1.3740002    
    589000   92.051867     -8.4921436      1.7015052     -6.7906384      211.83752      1.3740002    
    590000   91.726474     -8.4861546      1.6954906     -6.7906641      209.34436      1.3740002    
    591000   97.048814     -8.58443        1.7938698     -6.7905602      40.756936      1.3740002    
    592000   95.705528     -8.5596456      1.7690402     -6.7906055      75.087704      1.3740002    
    593000   87.117398     -8.4010991      1.6102955     -6.7908036      307.41733      1.3740002    
    594000   96.732036     -8.5787802      1.7880144     -6.7907658      90.991418      1.3740002    
    595000   104.21664     -8.7172643      1.9263613     -6.790903      -89.850962      1.3740002    
    596000   104.82396     -8.7283777      1.9375871     -6.7907907     -118.77413      1.3740002    
    597000   94.538592     -8.5381001      1.7474703     -6.7906298      105.84114      1.3740002    
    598000   99.496636     -8.6297766      1.8391158     -6.7906608      33.926981      1.3740002    
    599000   97.566507     -8.5942787      1.8034389     -6.7908398      86.52203       1.3740002    
    600000   93.275633     -8.5150555      1.7241255     -6.79093        133.10385      1.3740002    
    601000   98.340349     -8.6083392      1.8177427     -6.7905964      65.332951      1.3740002    
    602000   91.842493     -8.4883275      1.6976351     -6.7906924      244.05151      1.3740002    
    603000   94.630608     -8.5398406      1.7491712     -6.7906695      108.62346      1.3740002    
    604000   94.458455     -8.5365468      1.745989      -6.7905578      110.05836      1.3740002    
    605000   94.608509     -8.5394295      1.7487627     -6.7906668      144.12007      1.3740002    
    606000   99.573137     -8.6312233      1.8405299     -6.7906934      14.269824      1.3740002    
    607000   100.10587     -8.6414252      1.8503769     -6.7910482     -1.641627       1.3740002    
    608000   101.64087     -8.6697259      1.8787503     -6.7909756     -55.771181      1.3740002    
    609000   89.223614     -8.4397791      1.6492272     -6.7905519      276.8748       1.3740002    
    610000   98.140716     -8.6042443      1.8140527     -6.7901916      70.280997      1.3740002    
    611000   95.162236     -8.5495927      1.7589979     -6.7905948      111.38853      1.3740002    
    612000   101.75804     -8.671476       1.880916      -6.7905601     -54.37749       1.3740002    
    613000   96.600241     -8.5765459      1.7855782     -6.7909677      90.581316      1.3740002    
    614000   93.075851     -8.5116313      1.7204327     -6.7911986      89.879383      1.3740002    
    615000   91.205948     -8.4765984      1.685869      -6.7907294      151.7487       1.3740002    
    616000   96.369538     -8.5719439      1.7813139     -6.79063        121.58944      1.3740002    
    617000   90.895429     -8.4708579      1.6801294     -6.7907285      274.36768      1.3740002    
    618000   95.483843     -8.5557108      1.7649425     -6.7907683      113.67494      1.3740002    
    619000   90.974676     -8.472289       1.6815942     -6.7906948      202.43883      1.3740002    
    620000   94.808674     -8.5432404      1.7524626     -6.7907778      119.06962      1.3740002    
    621000   94.748174     -8.5422854      1.7513443     -6.7909411      177.38627      1.3740002    
    622000   91.048905     -8.4736013      1.6829662     -6.7906351      192.76162      1.3740002    
    623000   94.868786     -8.5444633      1.7535737     -6.7908896      104.45966      1.3740002    
    624000   97.557206     -8.5942225      1.803267      -6.7909555      153.60953      1.3740002    
    625000   98.309056     -8.6079799      1.8171643     -6.7908156      94.405842      1.3740002    
    626000   90.842191     -8.469835       1.6791453     -6.7906897      221.46621      1.3740002    
    627000   96.125525     -8.5674128      1.7768035     -6.7906093      112.04552      1.3740002    
    628000   94.668775     -8.5404668      1.7498766     -6.7905901      128.96653      1.3740002    
    629000   95.296243     -8.5523308      1.7614749     -6.7908559      71.603361      1.3740002    
    630000   94.954104     -8.5462036      1.7551507     -6.7910529      96.583522      1.3740002    
    631000   96.443883     -8.573667       1.7826881     -6.7909789      100.88636      1.3740002    
    632000   95.081042     -8.5481435      1.7574971     -6.7906464      117.14283      1.3740002    
    633000   92.347286     -8.4973791      1.7069658     -6.7904133      178.51788      1.3740002    
    634000   94.974767     -8.5463711      1.7555327     -6.7908385      100.52688      1.3740002    
    635000   102.59517     -8.6866836      1.8963897     -6.7902939     -60.749178      1.3740002    
    636000   92.24334      -8.4958138      1.7050444     -6.7907694      137.50436      1.3740002    
    637000   98.646857     -8.6140248      1.8234083     -6.7906165      67.707161      1.3740002    
    638000   90.791736     -8.4691965      1.6782127     -6.7909838      170.66092      1.3740002    
    639000   99.360281     -8.6271874      1.8365954     -6.790592       7.9342139      1.3740002    
    640000   97.50315      -8.5929626      1.8022678     -6.7906948      38.657323      1.3740002    
    641000   88.085833     -8.4186902      1.6281962     -6.790494       232.24863      1.3740002    
    642000   97.234232     -8.5881832      1.7972971     -6.7908862      79.585394      1.3740002    
    643000   90.567657     -8.4645737      1.6740707     -6.7905029      190.48827      1.3740002    
    644000   95.166024     -8.5497285      1.7590679     -6.7906606      176.19277      1.3740002    
    645000   95.634205     -8.5585094      1.7677218     -6.7907876      11.157167      1.3740002    
    646000   83.892111     -8.3411825      1.5506786     -6.7905039      346.13288      1.3740002    
    647000   92.905875     -8.5080079      1.7172908     -6.7907171      118.90912      1.3740002    
    648000   91.771055     -8.4870112      1.6963146     -6.7906966      126.76255      1.3740002    
    649000   94.006063     -8.5280428      1.7376269     -6.7904159      86.549364      1.3740002    
    650000   93.723873     -8.5230028      1.7324109     -6.790592       221.04974      1.3740002    
    651000   102.23861     -8.6802858      1.8897989     -6.7904869      5.6208121      1.3740002    
    652000   95.555392     -8.5570902      1.766265      -6.7908251      110.91303      1.3740002    
    653000   95.468265     -8.5553798      1.7646546     -6.7907252      98.279444      1.3740002    
    654000   94.87068      -8.5445239      1.7536087     -6.7909152      235.69801      1.3740002    
    655000   96.841894     -8.5809081      1.790045      -6.7908631      73.737066      1.3740002    
    656000   93.152038     -8.5124157      1.721841      -6.7905747      94.28915       1.3740002    
    657000   95.622399     -8.5582793      1.7675036     -6.7907757      77.619784      1.3740002    
    658000   87.29139      -8.4045286      1.6135116     -6.791017       267.58869      1.3740002    
    659000   99.217221     -8.6244474      1.833951      -6.7904964      33.674609      1.3740002    
    660000   90.070628     -8.4553568      1.6648836     -6.7904732      153.67805      1.3740002    
    661000   93.450075     -8.5179012      1.72735       -6.7905512      115.97202      1.3740002    
    662000   89.985226     -8.4537463      1.663305      -6.7904413      305.13267      1.3740002    
    663000   99.711671     -8.6338067      1.8430905     -6.7907162      18.85623       1.3740002    
    664000   98.243176     -8.6064548      1.8159466     -6.7905082      16.405125      1.3740002    
    665000   106.99349     -8.768184       1.9776891     -6.7904948     -138.52201      1.3740002    
    666000   93.562762     -8.5202481      1.7294329     -6.7908153      113.62938      1.3740002    
    667000   100.47741     -8.6478835      1.8572446     -6.7906389     -40.028647      1.3740002    
    668000   96.051063     -8.5664185      1.7754271     -6.7909913      83.02561       1.3740002    
    669000   90.768623     -8.46837        1.6777855     -6.7905846      235.86476      1.3740002    
    670000   105.35597     -8.7378858      1.9474209     -6.7904648     -103.5945       1.3740002    
    671000   92.200335     -8.4949059      1.7042495     -6.7906564      138.99753      1.3740002    
    672000   84.301424     -8.3487677      1.5582445     -6.7905232      422.48295      1.3740002    
    673000   91.398063     -8.4802217      1.6894201     -6.7908016      168.42003      1.3740002    
    674000   95.214593     -8.5506767      1.7599656     -6.790711       103.48689      1.3740002    
    675000   101.12823     -8.6600305      1.8692744     -6.7907561     -30.216353      1.3740002    
    676000   101.75277     -8.671324       1.8808186     -6.7905054     -4.9284361      1.3740002    
    677000   100.22644     -8.6433459      1.8526057     -6.7907402     -62.791968      1.3740002    
    678000   96.837747     -8.580694       1.7899684     -6.7907256      91.238582      1.3740002    
    679000   94.362657     -8.5347718      1.7442183     -6.7905535      121.59402      1.3740002    
    680000   97.413705     -8.591239       1.8006145     -6.7906245      20.692555      1.3740002    
    681000   100.5771      -8.6499396      1.8590873     -6.7908522     -15.244558      1.3740002    
    682000   94.98777      -8.5464714      1.755773      -6.7906984      81.746313      1.3740002    
    683000   103.8601      -8.7107473      1.9197709     -6.7909764     -44.895864      1.3740002    
    684000   87.909766     -8.4157505      1.6249418     -6.7908087      232.38597      1.3740002    
    685000   95.165922     -8.5498712      1.759066      -6.7908052      126.62483      1.3740002    
    686000   95.440802     -8.5546408      1.7641469     -6.7904938      88.37643       1.3740002    
    687000   98.603616     -8.6135639      1.822609      -6.7909549      11.575696      1.3740002    
    688000   96.647894     -8.5770533      1.7864591     -6.7905942      77.793352      1.3740002    
    689000   97.469711     -8.5920757      1.8016497     -6.7904261      42.311228      1.3740002    
    690000   97.501288     -8.5927856      1.8022334     -6.7905522      68.340993      1.3740002    
    691000   100.18643     -8.6428209      1.8518661     -6.7909548      24.660697      1.3740002    
    692000   96.820578     -8.5804523      1.789651      -6.7908013      102.24201      1.3740002    
    693000   92.621601     -8.5024974      1.7120363     -6.7904611      165.33003      1.3740002    
    694000   93.153678     -8.5123026      1.7218713     -6.7904313      112.47981      1.3740002    
    695000   97.156211     -8.5865013      1.7958549     -6.7906464      55.750065      1.3740002    
    696000   97.714337     -8.596859       1.8061714     -6.7906875      63.553597      1.3740002    
    697000   98.486838     -8.611122       1.8204505     -6.7906715      40.499509      1.3740002    
    698000   94.710396     -8.5412132      1.750646      -6.7905672      51.700926      1.3740002    
    699000   89.234093     -8.4399091      1.6494209     -6.7904882      280.2237       1.3740002    
    700000   95.709817     -8.5596949      1.7691195     -6.7905754      110.58471      1.3740002    
    701000   95.961791     -8.5645717      1.773777      -6.7907947      66.354625      1.3740002    
    702000   97.051749     -8.584439       1.793924      -6.790515       83.051364      1.3740002    
    703000   98.863552     -8.6178615      1.8274137     -6.7904478      9.6755065      1.3740002    
    704000   95.509141     -8.5563146      1.7654101     -6.7909045      143.1278       1.3740002    
    705000   89.610355     -8.4470356      1.6563758     -6.7906598      234.22577      1.3740002    
    706000   96.855695     -8.5805216      1.7903001     -6.7902215      151.6177       1.3740002    
    707000   96.328495     -8.5708389      1.7805552     -6.7902837      119.63685      1.3740002    
    708000   96.69283      -8.57812        1.7872897     -6.7908304      165.35943      1.3740002    
    709000   104.58447     -8.7238997      1.9331603     -6.7907394     -102.58168      1.3740002    
    710000   86.617223     -8.3914421      1.6010501     -6.790392       322.5993       1.3740002    
    711000   88.63741      -8.4288883      1.6383917     -6.7904966      253.67381      1.3740002    
    712000   97.458376     -8.5921395      1.8014402     -6.7906993      40.074564      1.3740002    
    713000   92.2184       -8.495296       1.7045834     -6.7907126      218.01792      1.3740002    
    714000   92.904346     -8.5078559      1.7172626     -6.7905933      179.26344      1.3740002    
    715000   92.329669     -8.4974584      1.7066401     -6.7908183      183.20382      1.3740002    
    716000   94.159464     -8.531024       1.7404624     -6.7905616      150.80398      1.3740002    
    717000   94.633723     -8.5400923      1.7492287     -6.7908635      102.90401      1.3740002    
    718000   95.330531     -8.5527835      1.7621087     -6.7906748      45.61499       1.3740002    
    719000   98.014202     -8.6021364      1.8117142     -6.7904223      17.994671      1.3740002    
    720000   100.46512     -8.6477211      1.8570174     -6.7907037      56.479196      1.3740002    
    721000   96.789999     -8.5794134      1.7890858     -6.7903276      66.597464      1.3740002    
    722000   97.76697      -8.5976456      1.8071443     -6.7905012      39.014442      1.3740002    
    723000   95.871556     -8.5627562      1.7721091     -6.7906471      123.20684      1.3740002    
    724000   94.686485     -8.5409735      1.750204      -6.7907695      109.98706      1.3740002    
    725000   93.593963     -8.5206257      1.7300096     -6.7906161      87.617862      1.3740002    
    726000   89.82337      -8.4511036      1.6603132     -6.7907904      208.84838      1.3740002    
    727000   90.89843      -8.4707194      1.6801848     -6.7905346      179.38673      1.3740002    
    728000   88.573219     -8.4279062      1.6372052     -6.790701       224.62458      1.3740002    
    729000   95.931942     -8.5639295      1.7732253     -6.7907042      188.07674      1.3740002    
    730000   94.48881      -8.5374766      1.7465501     -6.7909265      110.68946      1.3740002    
    731000   94.481283     -8.5370511      1.746411      -6.79064        102.09668      1.3740002    
    732000   88.96408      -8.43518        1.6444299     -6.7907501      239.13345      1.3740002    
    733000   93.821092     -8.5250304      1.7342079     -6.7908225      195.75291      1.3740002    
    734000   94.340534     -8.5345483      1.7438094     -6.790739       247.00346      1.3740002    
    735000   86.235458     -8.3847742      1.5939935     -6.7907807      317.43768      1.3740002    
    736000   97.075247     -8.5852329      1.7943584     -6.7908745      34.197677      1.3740002    
    737000   97.261847     -8.5883596      1.7978075     -6.7905521      104.68792      1.3740002    
    738000   95.237431     -8.5510862      1.7603878     -6.7906984      119.77068      1.3740002    
    739000   93.988658     -8.5281725      1.7373052     -6.7908673      44.309027      1.3740002    
    740000   91.123359     -8.4749716      1.6843425     -6.7906292      142.90675      1.3740002    
    741000   95.598077     -8.5577302      1.767054      -6.7906761      89.284456      1.3740002    
    742000   106.21252     -8.7541714      1.9632535     -6.7909179     -125.11231      1.3740002    
    743000   89.263316     -8.4405261      1.649961      -6.790565       237.26632      1.3740002    
    744000   90.988176     -8.472404       1.6818437     -6.7905603      231.58111      1.3740002    
    745000   90.813908     -8.4693737      1.6786225     -6.7907512      160.39476      1.3740002    
    746000   95.625598     -8.558304       1.7675627     -6.7907413      123.30877      1.3740002    
    747000   92.77945      -8.5056183      1.714954      -6.7906643      186.64874      1.3740002    
    748000   97.423657     -8.5915503      1.8007984     -6.7907518      71.705241      1.3740002    
    749000   94.676854     -8.5407495      1.750026      -6.7907235      107.97409      1.3740002    
    750000   98.02315      -8.6022365      1.8118796     -6.7903569      41.78044       1.3740002    
    751000   95.624502     -8.5582359      1.7675425     -6.7906934      100.95878      1.3740002    
    752000   95.199775     -8.5504265      1.7596917     -6.7907348      116.00691      1.3740002    
    753000   93.313632     -8.5152178      1.7248279     -6.7903899      185.21102      1.3740002    
    754000   95.819086     -8.5619562      1.7711392     -6.790817       126.58557      1.3740002    
    755000   95.654041     -8.5588087      1.7680885     -6.7907202      51.469279      1.3740002    
    756000   96.107174     -8.5675113      1.7764643     -6.791047       85.869955      1.3740002    
    757000   94.897594     -8.5448906      1.7541062     -6.7907844      133.29686      1.3740002    
    758000   91.163336     -8.4754642      1.6850814     -6.7903827      205.39439      1.3740002    
    759000   91.450969     -8.4809946      1.6903981     -6.7905966      160.26206      1.3740002    
    760000   93.525187     -8.5194407      1.7287383     -6.7907024      157.31273      1.3740002    
    761000   90.751051     -8.4680646      1.6774606     -6.790604       211.16541      1.3740002    
    762000   99.187793     -8.624351       1.8334071     -6.7909439      7.8807132      1.3740002    
    763000   91.794043     -8.4874851      1.6967395     -6.7907456      124.74879      1.3740002    
    764000   90.855116     -8.4700727      1.6793842     -6.7906885      203.28709      1.3740002    
    765000   97.0624       -8.5845843      1.7941209     -6.7904634      76.072558      1.3740002    
    766000   97.499081     -8.5925653      1.8021926     -6.7903727      42.314548      1.3740002    
[...]
   4816000   97.134261     -8.5862417      1.7954492     -6.7907925      57.487306      1.3740002    
   4817000   94.40873      -8.5358186      1.7450699     -6.7907487      76.820127      1.3740002    
   4818000   93.972851     -8.5275989      1.737013      -6.7905858      106.84524      1.3740002    
   4819000   96.342698     -8.5715126      1.7808178     -6.7906948      41.226244      1.3740002    
   4820000   99.08859      -8.6220757      1.8315734     -6.7905024     -9.1204654      1.3740002    
   4821000   93.778169     -8.5243879      1.7334145     -6.7909734      117.83329      1.3740002    
   4822000   90.792577     -8.4690157      1.6782282     -6.7907875      170.14704      1.3740002    
   4823000   98.537384     -8.6122442      1.8213848     -6.7908594      85.690213      1.3740002    
   4824000   97.416083     -8.5914345      1.8006584     -6.7907761      66.545371      1.3740002    
   4825000   96.209579     -8.5692295      1.7783572     -6.7908724      101.11559      1.3740002    
   4826000   95.547554     -8.5567648      1.7661202     -6.7906446      53.172534      1.3740002    
   4827000   94.974164     -8.54634        1.7555215     -6.7908185      153.35446      1.3740002    
   4828000   90.299812     -8.4595348      1.6691199     -6.790415       287.46234      1.3740002    
   4829000   93.958899     -8.5271193      1.7367552     -6.7903641      137.59109      1.3740002    
   4830000   94.258729     -8.5331829      1.7422973     -6.7908857      130.88573      1.3740002    
   4831000   94.25751      -8.5327685      1.7422747     -6.7904938      109.59357      1.3740002    
   4832000   90.333775     -8.4604747      1.6697476     -6.7907271      336.75798      1.3740002    
   4833000   95.797689     -8.5615697      1.7707437     -6.790826       143.89259      1.3740002    
   4834000   94.531468     -8.5377429      1.7473386     -6.7904042      86.118212      1.3740002    
   4835000   92.721835     -8.5043051      1.713889      -6.7904161      214.30149      1.3740002    
   4836000   95.197544     -8.5505323      1.7596505     -6.7908818      95.832637      1.3740002    
   4837000   89.959004     -8.4532266      1.6628203     -6.7904063      238.7558       1.3740002    
   4838000   94.766905     -8.5425888      1.7516905     -6.7908983      97.859694      1.3740002    
   4839000   95.10894      -8.5485166      1.7580127     -6.7905039      60.370213      1.3740002    
   4840000   97.021738     -8.5839631      1.7933693     -6.7905939      2.9059389      1.3740002    
   4841000   96.456782     -8.573638       1.7829265     -6.7907115      101.40898      1.3740002    
   4842000   98.299527     -8.607807       1.8169882     -6.7908188     -12.928998      1.3740002    
   4843000   93.066074     -8.5108137      1.720252      -6.7905617      130.1381       1.3740002    
   4844000   96.369011     -8.5720601      1.7813041     -6.7907559      49.133505      1.3740002    
   4845000   96.479103     -8.5742065      1.7833391     -6.7908674      56.08664       1.3740002    
   4846000   91.914566     -8.4894924      1.6989673     -6.7905251      122.47481      1.3740002    
   4847000   95.031885     -8.5475733      1.7565884     -6.7909849      19.122201      1.3740002    
   4848000   97.781442     -8.5978838      1.8074118     -6.790472       99.043842      1.3740002    
   4849000   86.714564     -8.3936716      1.6028494     -6.7908222      311.46985      1.3740002    
   4850000   85.924939     -8.3787255      1.5882538     -6.7904717      278.21012      1.3740002    
   4851000   94.99491      -8.5463077      1.755905      -6.7904027      88.181827      1.3740002    
   4852000   95.785284     -8.5612539      1.7705144     -6.7907395      122.76017      1.3740002    
   4853000   99.366327     -8.6277136      1.8367071     -6.7910064     -3.7861908      1.3740002    
   4854000   91.167053     -8.4756356      1.6851501     -6.7904855      174.80256      1.3740002    
   4855000   105.15379     -8.7343144      1.9436838     -6.7906306     -103.67759      1.3740002    
   4856000   98.697053     -8.6153541      1.8243361     -6.7910179      46.36941       1.3740002    
   4857000   92.7115       -8.5045127      1.713698      -6.7908147      151.40578      1.3740002    
   4858000   98.209107     -8.6060001      1.8153169     -6.7906833      78.915926      1.3740002    
   4859000   94.431968     -8.536258       1.7454995     -6.7907585      152.52881      1.3740002    
   4860000   98.15649      -8.6051001      1.8143443     -6.7907559      33.638108      1.3740002    
   4861000   93.752987     -8.5235337      1.732949      -6.7905846      161.91601      1.3740002    
   4862000   92.85205      -8.5070047      1.7162959     -6.7907088      176.88426      1.3740002    
   4863000   94.389877     -8.5355232      1.7447214     -6.7908017      177.69023      1.3740002    
   4864000   97.34519      -8.5901957      1.799348      -6.7908476      13.750832      1.3740002    
   4865000   101.23397     -8.6618428      1.8712291     -6.7906136      19.134712      1.3740002    
   4866000   104.03488     -8.7138735      1.9230016     -6.7908719     -101.31831      1.3740002    
   4867000   92.175251     -8.4944226      1.7037858     -6.7906368      189.93542      1.3740002    
   4868000   95.553418     -8.5568179      1.7662286     -6.7905894      120.6287       1.3740002    
   4869000   88.719937     -8.4306546      1.6399171     -6.7907375      242.87103      1.3740002    
   4870000   92.232511     -8.4955233      1.7048442     -6.7906791      163.00862      1.3740002    
   4871000   93.550401     -8.5195608      1.7292044     -6.7903564      200.6842       1.3740002    
   4872000   92.53985      -8.5008806      1.7105252     -6.7903554      162.7619       1.3740002    
   4873000   91.853476     -8.4887652      1.6978381     -6.7909271      176.93391      1.3740002    
   4874000   89.784834     -8.4505915      1.6596009     -6.7909906      152.94446      1.3740002    
   4875000   103.49522     -8.7038227      1.9130264     -6.7907963     -42.692103      1.3740002    
   4876000   95.331492     -8.552575       1.7621264     -6.7904485      54.719868      1.3740002    
   4877000   94.587612     -8.5389659      1.7483764     -6.7905895      87.832776      1.3740002    
   4878000   87.296316     -8.4039341      1.6136026     -6.7903315      254.25303      1.3740002    
   4879000   99.467292     -8.6293756      1.8385734     -6.7908022      6.3330513      1.3740002    
   4880000   90.807513     -8.4690454      1.6785043     -6.790541       249.24612      1.3740002    
   4881000   99.531975     -8.6302407      1.839769      -6.7904717      18.296871      1.3740002    
   4882000   99.505294     -8.6302145      1.8392758     -6.7909387      25.448077      1.3740002    
   4883000   99.205837     -8.6245121      1.8337406     -6.7907715     -1.3716359      1.3740002    
   4884000   92.532646     -8.5010326      1.710392      -6.7906406      158.43554      1.3740002    
   4885000   95.296999     -8.5520384      1.7614889     -6.7905496      93.864729      1.3740002    
   4886000   89.685944     -8.4481828      1.657773      -6.7904098      261.42891      1.3740002    
   4887000   96.885116     -8.5815784      1.7908439     -6.7907345      88.01725       1.3740002    
   4888000   96.968439     -8.5831215      1.7923841     -6.7907374      86.08561       1.3740002    
   4889000   96.642557     -8.5770478      1.7863604     -6.7906874      107.96812      1.3740002    
   4890000   94.745719     -8.5417985      1.7512989     -6.7904996      118.99635      1.3740002    
   4891000   93.587009     -8.5203439      1.7298811     -6.7904628      120.53359      1.3740002    
   4892000   96.740014     -8.5786802      1.7881618     -6.7905183      106.42605      1.3740002    
   4893000   94.65708      -8.5405376      1.7496605     -6.7908771      89.662515      1.3740002    
   4894000   96.129658     -8.5676945      1.7768799     -6.7908146      9.8468682      1.3740002    
   4895000   93.757141     -8.5236879      1.7330258     -6.7906621      119.46807      1.3740002    
   4896000   96.097536     -8.5669883      1.7762862     -6.7907022      77.780228      1.3740002    
   4897000   93.380736     -8.5170234      1.7260683     -6.7909552      105.04333      1.3740002    
   4898000   97.377708     -8.5904872      1.7999491     -6.7905381      50.991642      1.3740002    
   4899000   97.313442     -8.5893548      1.7987612     -6.7905936      68.630725      1.3740002    
   4900000   94.595573     -8.5390871      1.7485236     -6.7905636      104.44381      1.3740002    
   4901000   97.995198     -8.6022163      1.8113629     -6.7908534      47.756894      1.3740002    
   4902000   91.960632     -8.4904103      1.6998188     -6.7905915      253.66329      1.3740002    
   4903000   85.284909     -8.3671988      1.5764234     -6.7907754      263.34725      1.3740002    
   4904000   99.49175      -8.629742       1.8390255     -6.7907165      58.899472      1.3740002    
   4905000   97.192143     -8.5870167      1.7965191     -6.7904977      158.05907      1.3740002    
   4906000   100.12685     -8.6412562      1.8507648     -6.7904914     -35.552455      1.3740002    
   4907000   97.724864     -8.5970343      1.806366      -6.7906683      51.966632      1.3740002    
   4908000   92.09151      -8.4930834      1.702238      -6.7908454      138.57061      1.3740002    
   4909000   88.355625     -8.4239774      1.6331831     -6.7907943      251.20034      1.3740002    
   4910000   94.277483     -8.5333838      1.7426439     -6.7907399      171.50057      1.3740002    
   4911000   92.072449     -8.4924298      1.7018856     -6.7905442      242.71731      1.3740002    
   4912000   93.818651     -8.5245837      1.7341628     -6.7904209      227.46038      1.3740002    
   4913000   93.764179     -8.5234781      1.7331559     -6.7903222      183.20449      1.3740002    
   4914000   94.100056     -8.5300817      1.7393643     -6.7907173      159.8522       1.3740002    
   4915000   101.8038      -8.6722405      1.881762      -6.7904785     -29.168123      1.3740002    
   4916000   93.991449     -8.5279174      1.7373568     -6.7905606      144.72706      1.3740002    
   4917000   98.954894     -8.6197049      1.8291021     -6.7906027      38.847462      1.3740002    
   4918000   97.801634     -8.5982312      1.807785      -6.7904461      73.444535      1.3740002    
   4919000   91.153174     -8.4756105      1.6848936     -6.7907169      249.15737      1.3740002    
   4920000   96.086513     -8.5666457      1.7760824     -6.7905633      85.61557       1.3740002    
   4921000   96.964888     -8.5825673      1.7923184     -6.7902489      136.20655      1.3740002    
   4922000   91.110323     -8.474659       1.6841015     -6.7905575      257.71342      1.3740002    
   4923000   93.14203      -8.5121584      1.721656      -6.7905024      182.90028      1.3740002    
   4924000   100.00793     -8.6390833      1.8485666     -6.7905167     -45.99814       1.3740002    
   4925000   93.740856     -8.5233741      1.7327248     -6.7906493      132.74471      1.3740002    
   4926000   100.85957     -8.6550267      1.8643085     -6.7907183     -72.696698      1.3740002    
   4927000   94.752877     -8.5421884      1.7514312     -6.7907572      159.70741      1.3740002    
   4928000   98.942186     -8.6196338      1.8288672     -6.7907666      4.3330822      1.3740002    
   4929000   90.039733     -8.455165       1.6643125     -6.7908525      236.59453      1.3740002    
   4930000   91.321771     -8.4785883      1.6880099     -6.7905784      254.67199      1.3740002    
   4931000   91.217423     -8.4763111      1.6860811     -6.79023        204.64657      1.3740002    
   4932000   93.055492     -8.5107053      1.7200564     -6.790649       175.04244      1.3740002    
   4933000   95.602226     -8.5577478      1.7671307     -6.7906171      139.19735      1.3740002    
   4934000   93.118533     -8.5116371      1.7212216     -6.7904155      177.19199      1.3740002    
   4935000   97.311098     -8.5893436      1.7987179     -6.7906257      53.69987       1.3740002    
   4936000   89.474251     -8.444427       1.65386       -6.790567       205.04472      1.3740002    
   4937000   95.468987     -8.5553961      1.7646679     -6.7907282      75.377088      1.3740002    
   4938000   92.590339     -8.5022937      1.7114584     -6.7908353      113.0777       1.3740002    
   4939000   95.451076     -8.5549432      1.7643369     -6.7906064      156.68272      1.3740002    
   4940000   93.595643     -8.5204873      1.7300406     -6.7904467      95.316133      1.3740002    
   4941000   98.426631     -8.6100915      1.8193376     -6.7907539      114.9232       1.3740002    
   4942000   92.169216     -8.4942243      1.7036743     -6.79055        193.37531      1.3740002    
   4943000   98.706837     -8.6150711      1.824517      -6.7905542      36.371201      1.3740002    
   4944000   94.182906     -8.5315968      1.7408957     -6.7907011      105.05166      1.3740002    
   4945000   96.377495     -8.5720433      1.781461      -6.7905824      96.830536      1.3740002    
   4946000   86.449966     -8.3888311      1.5979585     -6.7908726      255.70557      1.3740002    
   4947000   96.489667     -8.5742775      1.7835344     -6.7907432      43.60439       1.3740002    
   4948000   95.643996     -8.558653       1.7679028     -6.7907502      77.680688      1.3740002    
   4949000   93.609029     -8.5209408      1.7302881     -6.7906527      139.89711      1.3740002    
   4950000   103.34147     -8.700911       1.9101845     -6.7907265     -116.4489       1.3740002    
   4951000   95.85747      -8.5626179      1.7718487     -6.7907692      48.856373      1.3740002    
   4952000   91.622898     -8.4845543      1.693576      -6.7909783      140.9207       1.3740002    
   4953000   97.311592     -8.5897575      1.798727      -6.7910305      44.256076      1.3740002    
   4954000   92.306098     -8.4971543      1.7062045     -6.7909499      195.91892      1.3740002    
   4955000   94.689752     -8.5408223      1.7502644     -6.7905579      131.85265      1.3740002    
   4956000   88.198241     -8.4206887      1.630274      -6.7904147      306.28946      1.3740002    
   4957000   93.7004       -8.5223093      1.731977      -6.7903323      130.31693      1.3740002    
   4958000   96.675563     -8.5775748      1.7869705     -6.7906043      52.04479       1.3740002    
   4959000   96.99691      -8.5836233      1.7929104     -6.790713       113.69187      1.3740002    
   4960000   92.035549     -8.491586       1.7012036     -6.7903824      202.52248      1.3740002    
   4961000   96.685849     -8.577845       1.7871606     -6.7906844      50.053467      1.3740002    
   4962000   98.732384     -8.6156607      1.8249892     -6.7906715      28.432782      1.3740002    
   4963000   100.41919     -8.6469259      1.8561685     -6.7907574      26.949543      1.3740002    
   4964000   100.72735     -8.6523895      1.8618645     -6.790525      -14.566964      1.3740002    
   4965000   92.741654     -8.5049828      1.7142554     -6.7907275      221.0814       1.3740002    
   4966000   92.383096     -8.4984131      1.7076277     -6.7907854      224.86734      1.3740002    
   4967000   103.04724     -8.6954573      1.9047458     -6.7907114     -95.063175      1.3740002    
   4968000   93.235594     -8.5144613      1.7233854     -6.7910758      176.17768      1.3740002    
   4969000   100.80691     -8.6539488      1.8633351     -6.7906137      59.22161       1.3740002    
   4970000   98.990579     -8.6202955      1.8297617     -6.7905338      45.894937      1.3740002    
   4971000   90.538313     -8.4640839      1.6735283     -6.7905555      218.59084      1.3740002    
   4972000   89.921175     -8.452504       1.6621211     -6.7903829      234.24294      1.3740002    
   4973000   92.084766     -8.4925439      1.7021133     -6.7904306      162.45324      1.3740002    
   4974000   101.36587     -8.6639423      1.873667      -6.7902753      26.269194      1.3740002    
   4975000   91.601976     -8.4838471      1.6931893     -6.7906578      213.58246      1.3740002    
   4976000   98.153204     -8.6050825      1.8142835     -6.790799       55.103065      1.3740002    
   4977000   103.51191     -8.7042936      1.9133349     -6.7909587     -62.812502      1.3740002    
   4978000   99.750014     -8.6349938      1.8437993     -6.7911945     -59.337757      1.3740002    
   4979000   101.54801     -8.6677493      1.8770338     -6.7907154     -79.45173       1.3740002    
   4980000   95.845737     -8.5622473      1.7716318     -6.7906155      4.6392581      1.3740002    
   4981000   88.405822     -8.4249012      1.634111      -6.7907902      273.80836      1.3740002    
   4982000   98.923464     -8.6192185      1.8285212     -6.7906973     -14.025814      1.3740002    
   4983000   93.377043     -8.5163701      1.726         -6.7903701      152.15226      1.3740002    
   4984000   98.093123     -8.6037874      1.813173      -6.7906145      11.443698      1.3740002    
   4985000   97.776995     -8.5979571      1.8073296     -6.7906275      75.744494      1.3740002    
   4986000   91.067651     -8.4739497      1.6833127     -6.790637       108.01265      1.3740002    
   4987000   95.259081     -8.5512653      1.760788      -6.7904773      88.700496      1.3740002    
   4988000   98.910499     -8.6188817      1.8282815     -6.7906001      52.610064      1.3740002    
   4989000   96.865173     -8.581222       1.7904753     -6.7907467      21.53367       1.3740002    
   4990000   97.094332     -8.5852511      1.7947111     -6.79054        38.584833      1.3740002    
   4991000   88.692491     -8.4302573      1.6394098     -6.7908475      221.9958       1.3740002    
   4992000   95.989211     -8.5650403      1.7742839     -6.7907565      57.962204      1.3740002    
   4993000   94.810262     -8.5433187      1.7524919     -6.7908268      67.166023      1.3740002    
   4994000   93.300215     -8.515328       1.7245799     -6.7907481      170.79244      1.3740002    
   4995000   100.38578     -8.6464167      1.8555509     -6.7908658     -59.341603      1.3740002    
   4996000   101.02747     -8.6583102      1.8674121     -6.7908981     -24.68543       1.3740002    
   4997000   89.062562     -8.4367647      1.6462503     -6.7905145      257.00699      1.3740002    
   4998000   101.12611     -8.6599516      1.8692353     -6.7907164     -9.8677803      1.3740002    
   4999000   94.182524     -8.5315835      1.7408887     -6.7906949      131.50607      1.3740002    
   5000000   95.070699     -8.5478877      1.7573059     -6.7905818      108.2837       1.3740002    
Loop time of 9641.34 on 1 procs for 5000000 steps with 144 atoms

Performance: 44.807 ns/day, 0.536 hours/ns, 518.600 timesteps/s
99.2% CPU use with 1 MPI tasks x 1 OpenMP threads

MPI task timing breakdown:
Section |  min time  |  avg time  |  max time  |%varavg| %total
---------------------------------------------------------------
Pair    | 4427.3     | 4427.3     | 4427.3     |   0.0 | 45.92
Neigh   | 659.63     | 659.63     | 659.63     |   0.0 |  6.84
Comm    | 246.56     | 246.56     | 246.56     |   0.0 |  2.56
Output  | 2.2898     | 2.2898     | 2.2898     |   0.0 |  0.02
Modify  | 4281.4     | 4281.4     | 4281.4     |   0.0 | 44.41
Other   |            | 24.23      |            |       |  0.25

Nlocal:            144 ave         144 max         144 min
Histogram: 1 0 0 0 0 0 0 0 0 0
Nghost:           2378 ave        2378 max        2378 min
Histogram: 1 0 0 0 0 0 0 0 0 0
Neighs:          21436 ave       21436 max       21436 min
Histogram: 1 0 0 0 0 0 0 0 0 0

Total # of neighbors = 21436
Ave neighs/atom = 148.86111
Neighbor list builds = 500000
Dangerous builds not checked
Total wall time: 2:40:41
