 # LAMMPS timestep 92070
 
         400  atoms
           1  atom types
 
      0.000000000000      28.900750000000  xlo xhi
      0.000000000000      28.900750000000  ylo yhi
      0.000000000000      23.120600000000  zlo zhi
 
Masses
 
1   39.94800200             # Ar
 
Atoms # atomic
 
         1    1       27.577435976788      10.542646344257       3.416451454947
         2    1        9.114193968590       7.063742890680       2.328089624265
         3    1       27.923981714650      23.114261947038       9.919744892711
         4    1        8.910289799960      14.432653457963       7.610286095038
         5    1       10.810886296033       4.185626332100       2.461164746624
         6    1        2.171384027436      24.841050166644       9.473878763801
         7    1       15.811075184112      22.587367513627       4.666178251947
         8    1       12.704515491121      11.696022413241       5.579291923624
         9    1       15.429585096156       1.116226412542       2.785841951850
        10    1        9.295312648798       5.330786325344      18.488035499280
        11    1       10.062753481626      18.451375912428      10.630369295920
        12    1       19.635705620268      26.029790079062      16.540032524257
        13    1       15.036116778539      23.827014717272      21.385486045978
        14    1       20.493219229348       2.158862838449       6.606728301105
        15    1       19.893637847750      24.253363567422       6.140336093645
        16    1       13.124402676069       4.884628049428      18.775320857538
        17    1       17.656008670261       6.564811043982       4.687674398327
        18    1       21.741018294792       5.584786930197       5.506727709269
        19    1       22.390000567835       7.275363757370      17.357178705644
        20    1       23.014676251209       8.361516257914       6.699325261959
        21    1       27.547376580119      10.537990473441      22.610341846457
        22    1       15.969592733003      19.491114100225       2.390496549505
        23    1       10.720877986616       1.202188241886       9.242210396925
        24    1       26.130911624678      21.361678436091       3.404634913454
        25    1        5.165447181430       3.358249769871       6.547287766378
        26    1       11.214866689795      28.722845800731      16.708887648699
        27    1       17.224315793071      22.802050176735      15.624107372171
        28    1       25.577595985361       4.724124379974      11.655132066537
        29    1       13.328885569654       6.558830940717      14.336937763642
        30    1       13.814259115785      12.115384587644      18.123876650766
        31    1       13.463265433595      10.165456094661      22.935475531999
        32    1       24.821869549500      15.313815573688      18.626286125650
        33    1       20.873570156866       4.225110755350      19.225850533969
        34    1       19.514744870333       4.043384361786       2.779940282394
        35    1       18.769284632609       6.933066045398       0.402620635575
        36    1       16.329280130143      10.389013540728       8.241258947972
        37    1       18.718428953598      27.196792413748       7.855276635455
        38    1        3.516530556380       0.057454965986      17.564400118328
        39    1       23.925397393149      24.931554799668       3.875689212461
        40    1       17.004763518821      10.469881714594      21.614167296593
        41    1        3.768801106022      19.484106209951       9.520275577512
        42    1       23.457156116005      11.458903889001      16.538758836470
        43    1        3.313059793584       6.457085700426       7.180513159987
        44    1       10.334425287946      13.702231853046      22.198550602434
        45    1       19.368108887492       2.013365030880      16.263102023740
        46    1        9.033073453285      16.614273600824       3.867330976689
        47    1        5.188720981551      13.123624589712      12.793724650558
        48    1       26.517816679616      13.782387843926      21.637737742524
        49    1       18.229932548295       8.169606521359      18.860491308549
        50    1       10.258364132020      18.601873157805       7.087593238856
        51    1       18.782371795463      13.724875351955      22.203982322667
        52    1       10.990244140979      21.634771015448      16.854496107469
        53    1       17.989123343483      10.255056916995      16.232735113492
        54    1       11.343847589807      10.479585186344      10.900650532185
        55    1       20.450332049087      10.559915672845      22.931929508121
        56    1       26.595308321264       1.349600237475       2.357804424843
        57    1       25.791682179373      13.972128431693       2.188388993551
        58    1        0.837101933253      16.911063062087       3.572139545529
        59    1       22.340515955355       7.101318749892       1.377406845923
        60    1        1.365347993519      10.335473865798      15.946648914543
        61    1        4.284471021036      28.609008205243      22.949802995475
        62    1       26.449185263787      27.396790611717       5.211734738490
        63    1        0.578337336204      22.703059801720       3.593405042609
        64    1        4.949925531327      14.042586928881       9.058375749558
        65    1       26.171361338830       8.325988656382      16.823954151709
        66    1       21.364274360871      16.622221190405       0.676275447354
        67    1        6.732403622128      20.093505953099      11.777211997268
        68    1        3.993620339984      15.244060684108       2.864990468097
        69    1       16.810706408023      17.322302044185      14.280162264063
        70    1        9.027443103317       4.692132862217      22.101193632757
        71    1        3.039866333615      15.958337577121       6.384187197853
        72    1       20.055464277764      17.995550362780      20.205166699416
        73    1       20.212871053687      10.016656216679       3.249231588144
        74    1       15.991241701485      27.285159231109      22.901821394673
        75    1        5.148247878168       3.550783838731       0.189169476382
        76    1       21.506302771904      17.145325820734      16.211324914019
        77    1       16.667697067793      25.995876793419       2.789993671770
        78    1       21.019283461606      27.244887727037      21.039474390051
        79    1       21.405082381597      26.745884823534       2.019754476299
        80    1       21.445949088184       4.042474651351      22.643375055597
        81    1        0.309995417538      18.533844691185       6.861600263070
        82    1        6.155285820075       6.643754816195      13.001797274053
        83    1        8.690033488389      21.711512932051       9.216320534604
        84    1        0.415549443903      20.008551039544       0.782471193571
        85    1        0.260200041671      14.258641857907       1.427139676446
        86    1       16.134270042540       0.161690304777      15.267416985451
        87    1       14.493338408482      24.179727445402      11.100273191343
        88    1       28.849384632743       6.168533700589      10.406722154106
        89    1        5.873115740956      17.814212785264       4.886825428774
        90    1       14.289590778829      26.670603633707      16.990037335608
        91    1       15.341676992400       9.455599722155       4.185265143415
        92    1        7.165648618971      23.944960920683      11.600040774336
        93    1       11.951605918740       0.241680423023       1.309936214746
        94    1       23.584061914751      13.466186345641      10.010448561709
        95    1       13.333603639373       3.258701133488      22.308003474914
        96    1       13.287956593745       5.336744782525       5.416341991754
        97    1       24.751037441804       4.134801860069       3.072379500152
        98    1       23.665474729772      24.311630853865       7.654031464549
        99    1       20.233076850451      23.426217200587      13.430068577748
       100    1        6.706795417563       5.817797975952       8.677448880128
       101    1       19.091534986195      14.054129537677       3.397396217619
       102    1       19.564802055299       5.217382427551       9.371240030878
       103    1       24.637130242772       0.005721411413      15.022001042909
       104    1        9.206478692056      23.044171304350      14.443934901616
       105    1        8.441254348090      24.571107360886       4.298766849369
       106    1        5.539720812100       3.197620520581      12.565752193550
       107    1       19.425556554734       3.679362190724      12.815731753725
       108    1       28.333094643676       2.674615947796       9.302315623920
       109    1        2.671346093051      18.499016401477      20.119714794752
       110    1       12.277482656257       6.617119915183       0.839898908161
       111    1       15.338091147433      25.152052811243       7.196370293416
       112    1       12.420409544482      25.661723109314       3.937694523332
       113    1       21.317722380774      26.104013981025      10.810418704908
       114    1       11.051619048780       9.830770279026       2.910084778153
       115    1       16.145701765011       4.289066318673      11.618784813650
       116    1        9.016863846794       4.467609491512      14.565063980021
       117    1       21.088893271566       0.967816261944      10.189284494716
       118    1        1.850111224789       4.899087637366      22.128609961770
       119    1       24.991960763591       1.316809182370      10.588252871558
       120    1       12.596065975169       1.982117151477       5.091458653256
       121    1        7.488795126364      10.803461298417      17.414825909500
       122    1       28.710575068928       5.123633268523       4.163595114730
       123    1       22.516728588742      20.195831281143       1.307447205327
       124    1        0.285369859846       7.381512949920       1.168009927592
       125    1       12.233630669797      27.685054049453       7.126303478527
       126    1       19.723831293590       8.973767473602       6.897112296732
       127    1       13.085234971943       8.460226375793       8.352456373659
       128    1       25.929686529711       7.393041218689       4.109707355766
       129    1       26.819865929361      11.615000916004      14.383616668930
       130    1        7.998062492971      10.494460955321       0.403595930502
       131    1        9.538195818379      13.600878788662      11.716880163946
       132    1       20.507431104193      15.894799455973       6.100086969431
       133    1       14.565251781899      12.185179497704      11.354832157536
       134    1       17.628332508337      13.992765694971      15.551982934332
       135    1        3.412006510535       7.371045353214      10.959864474510
       136    1       16.011086751635       5.985615813987       8.234409210160
       137    1       18.314872683008       6.973389190846      12.337682097560
       138    1       17.166406158142       2.893919967952       5.396043394814
       139    1       17.839108185778       1.711865188181       9.119039509551
       140    1       24.009078950540      11.099256768549       4.009916178196
       141    1       25.158428939548      14.792731567422       6.801454495239
       142    1       11.541004828030      22.279739765460      11.195994441310
       143    1        6.614382308283       6.839840579362      16.573797456315
       144    1        1.691634279243      14.044100611660      12.580967730648
       145    1       24.485037662426       8.121438625828      10.469034142838
       146    1       17.794161455272      11.827825641323       5.577953885879
       147    1        8.324579220139       9.694929702284      13.790077351608
       148    1       12.513901517045       5.473952820420      10.848239050541
       149    1        8.970723689385      28.636936556395       4.549115361383
       150    1       10.080277605999       7.420036146517       5.980392367568
       151    1       12.421859523119      23.235246959678       7.277368364644
       152    1       11.839795244876      15.678583081501       9.306452521893
       153    1        6.890695030103      18.204747932924       8.763598306600
       154    1       11.337295662293       7.270563085999      20.372579194097
       155    1       25.881731213267       9.986402901979       6.849015288920
       156    1       12.129524906253      15.762176333646       5.380857322903
       157    1       16.084925974438      15.114409417907       2.050997050213
       158    1        2.123949364209      17.675031193684      16.493419990640
       159    1       27.689414981670       1.670735950095      12.783726687725
       160    1        1.185048690014      12.838677532464       9.187753670280
       161    1       18.356939746538      21.132088686026      22.950852674845
       162    1        0.031213722702      13.724950873347      16.098887107037
       163    1       26.867496438456      11.717348099279      10.089702962845
       164    1        2.624108930985      19.567088944220       4.407066377981
       165    1        7.537533968429      14.083318936183       1.588919078956
       166    1        4.249617051989      25.219970653186      17.056337108616
       167    1       11.542569202148       7.971508715842      16.686109257587
       168    1        6.171821816692      21.010239074576      21.276707815693
       169    1        4.673800817810      10.265223136814       8.490091554301
       170    1        1.684823061836      22.069046458464      14.997930384933
       171    1        6.228395264707      17.433906054996      15.106444051005
       172    1        7.475433725276      13.830150612085      15.279112827757
       173    1       18.628019198974      24.865236096742      22.850398810160
       174    1       26.830457072284      24.924877872839       1.878063488686
       175    1       15.229039581786      13.910406715874       7.901390681254
       176    1       15.975995869325      17.342802244572      21.924175239214
       177    1        4.561383659004       0.093888799397       3.494008054961
       178    1       28.387133715400       6.076912751075      17.910440047123
       179    1       12.711982886514      16.827679004601       1.196545806287
       180    1       23.861452901250      17.648621081497      21.178330819336
       181    1        5.073691894470      27.957393194047       7.056276522083
       182    1        1.084584621668      27.161520112182       3.610469809139
       183    1       27.531397171213      20.139587498626      15.394043908260
       184    1       24.698489977547       8.932117559465      20.266097737694
       185    1       19.207198584807      19.506925598348      10.464541626919
       186    1        6.657920826525       1.544341529268       9.385729518731
       187    1        1.816877688385      16.689368374560       9.713031212629
       188    1        6.398609966539       6.985148603625       0.451608616040
       189    1       10.330364455913      21.742102466463       4.862825538610
       190    1       12.566718853607      22.600954164131       1.843092378783
       191    1       10.218107246969      19.358881469658      13.797706765999
       192    1       12.917989026784      19.584520700256       4.337289291211
       193    1        8.859730698979       3.290062209619       6.759106267151
       194    1        6.192528093673      27.651778590056      12.031060473001
       195    1       19.297946178848      22.912294297841       2.870755653599
       196    1       19.120839542220      18.703373780800       3.377692503943
       197    1       18.870460425023      28.521413463462       4.075511538602
       198    1       22.209405126394      27.884639579863       7.348637293231
       199    1       22.958294606802       2.801423496196      13.205294357425
       200    1       26.527442746931      16.810898130824      15.850349376034
       201    1       24.463870334536      26.316812015223      12.666873440739
       202    1        0.476139970276       1.338796966982       5.474754992757
       203    1       26.549491008014      19.454567443773      11.582536568077
       204    1        9.211450764093      26.485988682492      22.047816948082
       205    1       27.066125602647      23.890513547692       6.083822091521
       206    1       25.790412903185       5.709783406664       7.331720468632
       207    1       10.263280576582      25.831881257505      10.766687050805
       208    1        7.147368529481      20.977347930867       3.368308645137
       209    1       15.817454974873      17.255853956602       5.321680645278
       210    1       21.190331161684      12.345813607919       7.131951445533
       211    1       17.390255402234      14.363417852004      11.752720270650
       212    1       10.664364932363       7.472525007835      12.481469571138
       213    1       17.666918697062      10.688845188305      12.751532824275
       214    1       27.577877602080       1.913581871758      16.653664785648
       215    1       21.323745187049      21.696953141595       8.254804741030
       216    1       14.645157167297       8.219004879532      18.537370448823
       217    1       23.841535284812       3.101901115495      16.978099116843
       218    1       25.756463488500      25.814133069463      17.631325460548
       219    1       23.811722129161      21.483341230766      11.225339836026
       220    1       16.062090834555      20.726683831274      12.031557320212
       221    1        8.958154098024       3.898907168763      11.051904342890
       222    1        5.539320066587      11.773911157030      21.517047372832
       223    1        1.965524741868       2.889496062228      12.419218576430
       224    1        2.124573985855       6.513524946618      14.365508015627
       225    1        5.753154108261       6.807721883396       4.512868093481
       226    1        4.396263203922       9.792079593388      14.715223481224
       227    1       16.884821887004       4.717664856285      18.938895020848
       228    1        2.543221803496       3.649902705076      16.713402311225
       229    1       15.466103335090       7.408796642638      21.908247431086
       230    1       13.933089636932      17.408849405371      11.867776272523
       231    1       18.645438359832       1.293751817356      20.134956465629
       232    1        7.563876445804      26.335975054347      15.316648379188
       233    1       14.846485853428       8.566528150238      11.482344148964
       234    1       24.548318782452       5.613268210613      15.054716097984
       235    1        9.936658614501      17.742135958647      17.130374433797
       236    1       19.814785449179      11.044086506493      19.062701421336
       237    1       25.841506601616      26.902289656519       8.802055163759
       238    1        3.454410687854       6.848387433571      18.308750877198
       239    1       25.989515787835      20.187906817843       7.288336422767
       240    1       18.730713103586      19.991299923206       6.542087165762
       241    1        3.771368915193      11.127690615625      18.208863548242
       242    1        0.960482748661       9.949653045117      12.120506117447
       243    1       28.853675403151      17.200322162253      13.475572914360
       244    1        3.310196352292      17.452548662931      12.841575695708
       245    1       10.886176090480      15.992193270198      13.982550317982
       246    1       14.299174758986       9.872098732150      15.208696148403
       247    1       27.874823304454       4.840778859742      14.553062128534
       248    1        7.125868920178      18.205560618890       0.512346439247
       249    1        7.267754873002      15.911845902756      11.854453717072
       250    1       13.743576643260      20.084075962973      14.992682147942
       251    1       14.524408670435      13.889403483304      21.803598442649
       252    1       14.575631373687      19.379019259803      18.629727362080
       253    1       19.976094341249      16.779444366781      12.776131434892
       254    1       18.800894987710      12.002071382156       9.865269789751
       255    1       23.080807364928      21.214994279831      20.508835611979
       256    1        6.211138107272      18.636663144470      18.480769392279
       257    1        4.857116880911      15.298910014607      22.443744839953
       258    1       20.543977546552       8.657088112999      10.059815484993
       259    1       17.837161258397      28.037880849679      12.076528005176
       260    1        0.274376403980      21.040674345024      18.300769172263
       261    1       27.004010278570      23.329161679529      13.595035824360
       262    1       10.101221695678      10.924138991072       7.853118719508
       263    1        0.531340447756      24.509922772721      17.465069926727
       264    1        5.972064828522      14.676962658246      18.656684007624
       265    1       18.034056081783      18.974405242889      17.376587100364
       266    1        5.773053556088      22.046882449806      14.408761268573
       267    1        2.740358077128      12.165371035426       5.963596788187
       268    1       22.082432647832      13.300414554215       2.144612806602
       269    1        9.473322462487      14.021470782537      18.098574979165
       270    1       16.645539158590      11.513738955731       1.807971508846
       271    1        7.856619253305       9.023014198755      10.132773966639
       272    1       12.488493127698      16.714764192636      20.772857516105
       273    1       23.868453963576      10.239658766480       0.492971811190
       274    1        6.033303104794      25.698432319573       1.814438435887
       275    1       25.042577767360      18.983203636281      18.246102972992
       276    1       22.999542979964      18.275268044824       8.494405046854
       277    1       23.342284377311      16.606828198240       4.081620071667
       278    1       25.200751069316      26.081733311629      21.126275667858
       279    1       26.252469461222      14.636670222769      12.695845624735
       280    1       23.549534806537      16.774495217118      12.086389719556
       281    1        4.190455283557      24.105384861090       4.414768550698
       282    1        2.194198637407      22.051888193639       7.374465347800
       283    1       26.517270358180      11.978911742079      18.219310738878
       284    1       28.720463554765      14.718407707197       5.947211100456
       285    1       14.033845035624      13.610010702765      14.401008314485
       286    1        2.353702151493      23.018454258731      20.822206844819
       287    1       11.572539521749      23.147272152751      20.802526160681
       288    1        0.290807559878      27.553220177947       7.771597941846
       289    1       12.786983138970      25.805952594519       0.092773222658
       290    1       21.125859496770      28.619486654068      13.369430914772
       291    1       22.080916332656       6.134190702674      11.904121318098
       292    1       12.287163032902      13.434224104423       2.332318969132
       293    1        8.606636507112      25.945527954175       7.637841034596
       294    1       14.558436771551      27.548178293336      10.317007070944
       295    1       22.887413849243      24.929716327110      15.810670375716
       296    1       22.219774919630      24.482390092871      19.149565220792
       297    1       27.133460116505      16.342882028213       9.407119806655
       298    1       22.172854440906      19.859340185213       5.321316458673
       299    1        0.825277432367      20.541609238587      12.146210023390
       300    1       26.111757325068       6.876618727728       0.088972370094
       301    1        0.007005283756      27.962158016205      18.608306859271
       302    1        7.288797295285       4.139684208334       3.100935914045
       303    1        3.407006483918       3.471154929159       9.465526935137
       304    1        2.259453932050       8.731549813563       3.860249173159
       305    1        9.337988330351      13.016378758524       4.412877011043
       306    1       28.558036484876      26.279480405610      11.795033940753
       307    1       13.220688033440      27.831435680508      20.470688733647
       308    1        3.021154139677       4.993408653219       2.685305110816
       309    1        6.033317671326       3.144834083383      16.091017881635
       310    1       13.682507984949      19.522440336275       8.730949893880
       311    1       17.231329445883      26.908096837152      19.201080308225
       312    1        7.609859622951       1.090670654496       1.640059138056
       313    1       18.126731478070      24.658472794990      10.891380182176
       314    1       21.053543634719       8.689860230877      14.369845397610
       315    1       27.004072805399       3.104946296441      21.565836993283
       316    1       15.795304520088       3.792250023192      15.040019406867
       317    1       28.436226366297      17.034116840497      18.863468313281
       318    1        3.762868211105      18.372351710458       1.142693543060
       319    1        1.546751545368      25.045512494071       0.760268637158
       320    1        1.421709587182       1.575305175948       1.889162916354
       321    1        3.347643459498      24.861797764864      13.198491110740
       322    1       10.433538186340      20.088460019169      19.831284530563
       323    1       22.980654031590      13.566924710455      21.644782840258
       324    1        7.374729239467      10.455416156751       5.740616491467
       325    1       22.300523200540       1.452102549998       2.691952714637
       326    1        5.993565120236      13.901164117308       5.187070460743
       327    1        5.171488682113       3.150986423054      19.552027167605
       328    1       14.199477876023       3.040845917995       8.599907443959
       329    1       10.499797014431       1.910570989509      19.393237710780
       330    1       14.768231994843       1.422481432707      18.478932982946
       331    1       21.568804053468       7.617697343110      20.859538465314
       332    1       17.131223684231       6.901089873106      15.909825329765
       333    1       10.774631043634      10.918878918835      19.890353388329
       334    1       24.587515764149      22.074507108535      16.662127328668
       335    1       12.368781228026       3.180936425165      16.104706499821
       336    1       15.652973256330      28.759417877129       6.601587058551
       337    1        2.937575008253      28.452614870346      10.405731186100
       338    1        0.177630871187       8.389171153393       7.066446877256
       339    1       23.019853112356       4.306933155553       8.568131928953
       340    1       15.565276640756       5.425169558756       1.921307156253
       341    1       26.593958020900       8.146016414598      13.211081025189
       342    1        2.142418867981      11.413696338153       0.151601058479
       343    1       24.019298945927      14.539401581953      15.297609821018
       344    1       20.736112926576      13.689577714120      14.097061595089
       345    1        3.657024267399      14.539912021877      15.731717798315
       346    1        7.328505099222       0.838222704578      21.070783721482
       347    1       13.288635786536      20.222487162707      22.071787739914
       348    1        1.727162756717      13.807192395061      19.426114277324
       349    1       22.180746361095      24.213455575937      22.908144677332
       350    1       16.090463767099      25.914263747115      14.170195535678
       351    1       20.367965806306       5.317321039218      15.655657003444
       352    1       21.249535269546      14.353942317750      18.225732983768
       353    1       20.479225334016      15.188131143835       9.737518254203
       354    1       20.115614522420      19.834732117442      14.037216789309
       355    1       13.013759936390       2.481875600367      12.569381580830
       356    1       10.371916186652      25.320911763309      18.225258895760
       357    1       12.610497642248      24.230835888439      14.792640100146
       358    1       10.972954568236      11.481267532119      15.673135964798
       359    1        8.103876484857       8.995774130137      20.193144679256
       360    1        2.786051835550      26.560853540441      20.571110819179
       361    1        3.426190474981       8.205328045082      22.029734545144
       362    1        1.134853246058      16.494856481768      22.291521291399
       363    1       22.117006009519      28.878602878542      17.956071561713
       364    1        6.506872334591      21.363992526613       6.622516297205
       365    1       26.566001068332      17.645149806660       4.931244057794
       366    1        6.044718136358      24.826351745119      21.055318078758
       367    1        7.140679387993       0.424209307964      17.246959478365
       368    1        5.496353463002      24.543295189807       8.935952670202
       369    1       18.687663887006      22.859610898936      19.756732967664
       370    1       24.896254361744       5.342668195225      20.284230210876
       371    1       28.092984818888      24.378673086480      21.192227436290