 # LAMMPS timestep 99897
 
         500  atoms
           1  atom types
 
      0.000000000000      28.900750000000  xlo xhi
      0.000000000000      28.900750000000  ylo yhi
      0.000000000000      28.900750000000  zlo zhi
 
Masses
 
1   39.94800200             # Ar
 
Atoms # atomic
 
         1    1        6.543320000000       8.000780000000      16.702300000000
         2    1       27.265600000000      23.362400000000       6.220610000000
         3    1        1.530610000000      24.945400000000      25.658500000000
         4    1        4.680150000000       6.839710000000       0.319271000000
         5    1       25.720500000000      21.094600000000       8.318120000000
         6    1        1.651610000000      23.375800000000      22.434000000000
         7    1        4.749890000000      21.656600000000       5.988650000000
         8    1       25.457300000000      25.862000000000      25.770300000000
         9    1       11.197900000000      24.537000000000      12.522300000000
        10    1       12.062300000000      14.310800000000      24.964200000000
        11    1        9.092330000000      28.805300000000      24.925000000000
        12    1        6.047270000000      28.089200000000       0.901243000000
        13    1        7.745120000000       1.274420000000       3.374620000000
        14    1        7.963230000000      10.268200000000      20.158900000000
        15    1       16.202600000000       2.656960000000       5.301270000000
        16    1       17.127800000000       2.259570000000      23.636300000000
        17    1       24.046300000000      12.300500000000      11.522900000000
        18    1       22.076700000000       6.639510000000      20.290600000000
        19    1       22.438300000000      11.589900000000       5.304820000000
        20    1       17.769000000000       6.622480000000      28.045700000000
        21    1        2.884180000000       5.040270000000      25.831500000000
        22    1       27.449600000000       5.946560000000       3.307970000000
        23    1       24.568700000000      12.803900000000       7.778420000000
        24    1       27.427600000000      13.330200000000       9.654280000000
        25    1        6.866110000000      19.892300000000      26.355500000000
        26    1       10.001600000000       6.412680000000       3.376800000000
        27    1       11.988400000000      15.173400000000       9.180440000000
        28    1       22.439600000000      12.540800000000      15.149800000000
        29    1        4.105520000000       8.516480000000      25.751900000000
        30    1        7.780110000000       7.136710000000      26.640400000000
        31    1        1.870750000000      23.938200000000       8.147340000000
        32    1       10.661400000000       6.058310000000      28.782500000000
        33    1        9.880990000000      10.156800000000      26.148000000000
        34    1       21.102700000000       8.883320000000       2.096580000000
        35    1       18.643700000000       5.420230000000       3.325860000000
        36    1       17.010500000000      15.287500000000       3.925000000000
        37    1       18.454000000000      11.020100000000      27.766400000000
        38    1       20.736400000000       7.795520000000      25.341400000000
        39    1       23.457700000000       8.057120000000      17.258900000000
        40    1       24.982500000000      15.973900000000      14.033300000000
        41    1       24.347200000000       8.698490000000      24.267900000000
        42    1        8.658690000000       7.605820000000      23.144800000000
        43    1       27.551700000000      16.734400000000       7.034130000000
        44    1        8.191410000000      16.963200000000      27.848100000000
        45    1        4.483330000000       2.159870000000       4.919780000000
        46    1        3.616870000000      22.397200000000      19.310000000000
        47    1        8.283790000000       3.342610000000      26.139600000000
        48    1       11.372500000000      15.182800000000       0.097671600000
        49    1        6.460100000000      22.254300000000      17.000400000000
        50    1       19.626800000000      16.364200000000       1.377470000000
        51    1        5.374170000000      20.567600000000      21.666000000000
        52    1       12.000600000000      18.303700000000      15.236400000000
        53    1       15.221800000000      11.774800000000      26.702500000000
        54    1       27.562100000000      10.984000000000       1.210860000000
        55    1       25.497300000000      21.106000000000      11.734500000000
        56    1        8.462910000000       8.805750000000       1.099450000000
        57    1       24.113400000000       7.852050000000       5.100390000000
        58    1        2.033720000000      22.625100000000       0.850094000000
        59    1        5.515890000000      21.752300000000       0.300610000000
        60    1        5.839790000000      14.849600000000      17.945500000000
        61    1       24.702500000000      19.645600000000       2.044920000000
        62    1        1.904710000000      17.782700000000      11.995700000000
        63    1       13.692800000000       1.864710000000      22.050100000000
        64    1       26.529400000000      28.506400000000       8.627840000000
        65    1       24.808500000000      24.165500000000       0.450333000000
        66    1       11.249600000000      20.194100000000      23.072800000000
        67    1        8.109910000000      23.829400000000      26.749300000000
        68    1        8.005380000000      24.527700000000       1.703810000000
        69    1       15.913200000000      15.184900000000      20.089000000000
        70    1       28.292000000000      16.068400000000      18.428800000000
        71    1       10.804400000000       9.473280000000       5.121580000000
        72    1       18.312600000000      18.149700000000      11.179200000000
        73    1        8.009490000000      21.183800000000       9.006490000000
        74    1       27.715800000000      14.353600000000      22.865400000000
        75    1       10.780400000000      14.656000000000       5.346420000000
        76    1       16.152900000000       5.344050000000       7.558420000000
        77    1        5.250600000000      13.874600000000       4.667200000000
        78    1       19.341100000000      17.574900000000      24.922700000000
        79    1       19.310300000000      15.736200000000       8.706810000000
        80    1       22.211700000000      15.974800000000      27.813000000000
        81    1        0.484410000000      17.247200000000      26.046400000000
        82    1        5.046910000000      14.495300000000       0.761431000000
        83    1        3.102000000000      16.505300000000       4.252740000000
        84    1       20.869800000000       0.925647000000      28.644700000000
        85    1       27.478300000000      22.774800000000       2.597210000000
        86    1       13.097100000000      28.577500000000      18.740000000000
        87    1       28.369500000000      26.523700000000       6.093330000000
        88    1        4.202510000000       5.376630000000       3.335340000000
        89    1        6.466620000000      10.591200000000      27.564400000000
        90    1        7.182580000000      27.515800000000       9.710010000000
        91    1       15.588200000000      28.184500000000      23.941300000000
        92    1        7.092460000000       1.952740000000       8.427700000000
        93    1        3.568340000000      18.686600000000      28.215700000000
        94    1       11.335300000000      23.077900000000      24.847200000000
        95    1       23.896000000000      17.342900000000       5.712970000000
        96    1       21.207600000000      14.415700000000      11.548300000000
        97    1       18.828300000000      14.444600000000      26.595300000000
        98    1       23.595400000000      16.001200000000       2.035290000000
        99    1       23.764900000000       3.276300000000      27.942900000000
       100    1       16.619700000000      28.193500000000       0.728787000000
       101    1       16.678800000000       8.719500000000      14.161900000000
       102    1       25.637300000000       3.196470000000       4.919760000000
       103    1       27.433200000000      17.630800000000      11.408100000000
       104    1       26.581200000000       2.240090000000       0.814562000000
       105    1       11.061400000000      27.776700000000       6.048810000000
       106    1        7.343770000000       4.113420000000       5.252640000000
       107    1       15.426600000000       6.075930000000      17.234500000000
       108    1       27.599400000000       4.280320000000      25.949800000000
       109    1       14.378600000000      22.008100000000      27.407300000000
       110    1        8.722330000000      10.366800000000      10.941200000000
       111    1       22.048500000000      28.475000000000      12.649800000000
       112    1       11.376500000000      23.646000000000      28.789000000000
       113    1        3.941740000000      25.488300000000      10.325700000000
       114    1       18.712000000000       5.568520000000      18.667400000000
       115    1       27.291000000000      28.866300000000       3.541120000000
       116    1       14.106300000000      26.627100000000       8.423860000000
       117    1       22.233600000000      12.647500000000       0.800304000000
       118    1        2.863210000000       8.686660000000       6.939550000000
       119    1       15.159000000000      15.682800000000      11.327300000000
       120    1       23.083600000000       9.143220000000      13.705700000000
       121    1       27.393600000000      12.315600000000      19.633100000000
       122    1       21.483000000000       6.070620000000       0.138750000000
       123    1        1.683980000000      19.835800000000       8.300500000000
       124    1       10.450000000000       3.384390000000      13.011500000000
       125    1       27.550000000000      10.632800000000       4.864920000000
       126    1       27.823500000000       0.297305000000      26.820300000000
       127    1       24.365700000000       5.837980000000       7.870260000000
       128    1       18.992700000000       9.478420000000       6.028140000000
       129    1        7.700120000000       1.463480000000      11.942700000000
       130    1       18.723000000000       7.232050000000      22.140400000000
       131    1       18.483400000000      20.658500000000       8.951990000000
       132    1       10.185400000000      25.871300000000       9.103940000000
       133    1       15.245200000000      12.448700000000      14.069400000000
       134    1       23.375600000000       9.712060000000       8.917870000000
       135    1       13.692500000000       1.337490000000       7.734710000000
       136    1        1.479770000000      10.980700000000      26.111200000000
       137    1       20.933200000000       3.207110000000       9.621580000000
       138    1        1.725240000000       6.198300000000       9.672950000000
       139    1       18.069500000000       5.284780000000      11.708800000000
       140    1       26.596700000000       8.122410000000      14.835700000000
       141    1        0.095779900000       9.748830000000      10.532100000000
       142    1       14.963800000000      21.492400000000       5.905010000000
       143    1       17.663700000000      19.241100000000       2.708500000000
       144    1       26.794900000000      16.951100000000       3.006190000000
       145    1        4.759660000000      10.322800000000       2.238200000000
       146    1        1.760740000000      11.912600000000       7.635360000000
       147    1       13.525600000000      12.906100000000       4.382730000000
       148    1        5.931230000000      18.635400000000       2.185580000000
       149    1        7.190150000000      26.906700000000       4.978650000000
       150    1        6.885480000000      10.945600000000       7.102930000000
       151    1       13.325200000000      17.848200000000       4.764310000000
       152    1       13.994500000000       2.987010000000      11.602300000000
       153    1       15.706600000000      22.265300000000       2.608370000000
       154    1       22.441400000000       9.799990000000      27.403800000000
       155    1       15.090700000000      17.412900000000       8.146340000000
       156    1        8.842100000000      17.999600000000       7.928140000000
       157    1       26.269300000000       6.716710000000      28.690800000000
       158    1       27.795100000000      23.543800000000      14.057100000000
       159    1        7.843480000000      10.615000000000      14.427400000000
       160    1       17.733400000000      15.693300000000      14.013500000000
       161    1       24.074300000000       2.531440000000      11.379500000000
       162    1       25.750200000000      25.862000000000      19.046600000000
       163    1       26.143000000000       7.059520000000      10.869000000000
       164    1       24.675900000000      14.373400000000      17.293800000000
       165    1        2.054680000000      26.281900000000       2.126160000000
       166    1        6.246720000000      25.316600000000      21.730400000000
       167    1        4.656960000000      22.478500000000      13.790000000000
       168    1        7.505000000000      16.884100000000       4.838990000000
       169    1       12.487800000000       8.814800000000       1.886940000000
       170    1       15.494200000000      12.100500000000      18.121800000000
       171    1        8.458130000000      15.094900000000       1.883810000000
       172    1       22.738600000000      28.497200000000      20.287900000000
       173    1       10.793100000000      18.111000000000       2.042750000000
       174    1       23.465600000000      21.604100000000       5.672680000000
       175    1       20.491000000000      24.176200000000       8.150340000000
       176    1       18.387700000000      25.062200000000      11.274400000000
       177    1       24.662000000000       8.893460000000       1.750360000000
       178    1       18.719200000000      22.081600000000       4.768380000000
       179    1        3.417210000000       9.230150000000      10.482700000000
       180    1        1.748930000000      22.312600000000      11.762900000000
       181    1       20.355900000000      12.021600000000       8.548810000000
       182    1        1.254220000000       2.610450000000       9.337700000000
       183    1       26.997500000000       4.466820000000      13.581900000000
       184    1       12.199700000000       4.320390000000       8.732100000000
       185    1        1.510260000000      20.953300000000      26.033900000000
       186    1        4.856420000000      20.500200000000      10.376200000000
       187    1        1.012560000000      20.689200000000      15.466100000000
       188    1       28.108600000000      19.697800000000       4.914190000000
       189    1        8.185000000000      22.350800000000      23.288600000000
       190    1       10.436200000000      23.450900000000       6.104310000000
       191    1       21.775000000000      26.005400000000       1.877330000000
       192    1       12.475900000000      23.230800000000       8.907150000000
       193    1       10.905000000000       2.651580000000      19.153800000000
       194    1       20.502600000000      19.446800000000       0.031809700000
       195    1        2.538310000000      28.380300000000      26.273100000000
       196    1       16.496100000000      27.861000000000      10.505300000000
       197    1       16.921500000000      24.141000000000       7.468880000000
       198    1       24.162100000000       4.702050000000       2.433280000000
       199    1       19.528600000000       2.048860000000       6.610310000000
       200    1        1.471580000000       7.198540000000      13.363300000000
       201    1        1.679630000000      23.437700000000       4.625140000000
       202    1       19.895300000000      27.868200000000       9.344010000000
       203    1        5.509820000000      25.558400000000      17.860000000000
       204    1       13.497300000000      27.293600000000      12.441300000000
       205    1        8.703620000000      28.450000000000      18.300400000000
       206    1        4.931970000000      24.051000000000       3.059730000000
       207    1       11.741300000000      11.904400000000      15.066200000000
       208    1       14.813400000000      12.451000000000      22.806400000000
       209    1        6.876180000000       7.588390000000       4.866390000000
       210    1        5.010470000000      26.346100000000      13.914000000000
       211    1        1.537380000000      19.711700000000      19.066500000000
       212    1       10.317800000000      22.290100000000      16.889800000000
       213    1       28.794200000000      25.793400000000      17.036900000000
       214    1       19.431000000000      27.014200000000      19.415000000000
       215    1       25.873000000000      26.201800000000      12.123500000000
       216    1       11.106200000000       1.047340000000      15.941700000000
       217    1        2.427570000000      28.100900000000      16.161300000000
       218    1       10.414900000000       2.581010000000       6.278920000000
       219    1       23.790600000000       2.916590000000      21.702700000000
       220    1       10.870900000000       1.003750000000       9.354070000000
       221    1        4.109870000000       0.826372000000      11.624700000000
       222    1        1.366990000000      15.423800000000       9.063810000000
       223    1        7.698090000000       6.609110000000      13.304100000000
       224    1       12.003900000000      10.597000000000       8.819310000000
       225    1       27.502700000000       0.367135000000      12.196600000000
       226    1       16.797800000000      25.433500000000      21.354600000000
       227    1       16.254800000000       4.823100000000      21.001100000000
       228    1       14.447900000000       3.059100000000      18.584800000000
       229    1        3.251150000000       7.259110000000      17.257600000000
       230    1        8.207130000000       4.742500000000      10.199300000000
       231    1       15.020200000000      20.735200000000       9.463950000000
       232    1       19.509500000000       3.817270000000      26.727600000000
       233    1       23.564500000000       0.209244000000       2.963900000000
       234    1       18.148700000000       8.462020000000       9.345920000000
       235    1       15.871800000000       3.491640000000      26.756800000000
       236    1       21.368500000000      22.338000000000      11.352700000000
       237    1        2.341460000000       3.284920000000      18.303000000000
       238    1       12.082200000000       8.942180000000      21.138200000000
       239    1        4.006300000000      10.320100000000      18.570800000000
       240    1       20.140200000000      10.084100000000      11.894300000000
       241    1        4.502860000000       5.111470000000       7.402950000000
       242    1        2.371940000000      19.507200000000       2.836340000000
       243    1       13.283500000000      21.673700000000      14.156200000000
       244    1       21.288700000000      18.908800000000       7.907580000000
       245    1       10.020200000000       8.457400000000      16.955600000000
       246    1        9.682910000000       6.381660000000       7.178220000000
       247    1       12.949400000000       6.601690000000       5.663450000000
       248    1        3.467080000000      13.380400000000      15.841100000000
       249    1       28.754100000000       1.497390000000       6.549540000000
       250    1       13.245400000000      10.156600000000      11.822700000000
       251    1       13.735700000000       8.961650000000      16.584900000000
       252    1       21.245700000000      11.510000000000      24.549100000000
       253    1       22.464600000000      20.548800000000      15.126800000000
       254    1       22.817000000000       2.801130000000       6.695190000000
       255    1       13.001500000000      18.342000000000      11.089700000000
       256    1       23.868100000000      12.783100000000      20.989300000000
       257    1       14.855300000000      17.350400000000      16.925800000000
       258    1        9.016470000000       5.537880000000      20.155100000000
       259    1       26.770900000000       3.916700000000       9.193280000000
       260    1       21.760600000000      18.266300000000      12.254400000000
       261    1        3.942710000000      17.189400000000      15.533000000000
       262    1       26.985500000000      19.287200000000      23.575900000000
       263    1       21.714400000000      16.788900000000      15.751000000000
       264    1       22.694000000000      22.939100000000      25.027400000000
       265    1       28.744000000000      26.701000000000      22.508100000000
       266    1       15.819500000000      18.553300000000      13.694300000000
       267    1        5.201240000000      18.198400000000       7.011110000000
       268    1        4.117780000000      16.905600000000      21.118000000000
       269    1        4.746760000000      16.717300000000      10.717500000000
       270    1        8.612100000000      13.734400000000       8.445840000000
       271    1       17.349900000000      18.550600000000       6.276730000000
       272    1       23.693800000000      27.943500000000       6.739550000000
       273    1       16.756500000000      17.656100000000      27.795400000000
       274    1       11.175800000000      26.113700000000       2.422290000000
       275    1        0.399942000000      17.372500000000      21.615300000000
       276    1       14.683900000000      25.231700000000       1.165300000000
       277    1        7.715900000000      15.468000000000      14.268800000000
       278    1        1.096140000000      26.667700000000      13.118700000000
       279    1       25.693600000000      21.868800000000      16.962800000000
       280    1       18.691600000000      27.391200000000      14.143600000000
       281    1       28.872800000000      22.872400000000      19.084400000000
       282    1       27.973900000000       1.459630000000      15.784500000000
       283    1        1.378720000000      10.643300000000      21.455700000000
       284    1        7.182240000000      24.317200000000       7.883850000000
       285    1        5.317150000000      19.073700000000      18.179300000000
       286    1       18.846800000000       0.417760000000       3.438750000000
       287    1       12.479800000000       4.442410000000      15.864100000000
       288    1        9.013340000000      25.007100000000      18.470600000000
       289    1        4.166730000000       0.131064000000       7.682300000000
       290    1       11.792700000000      21.889000000000       3.094470000000
       291    1       18.909000000000      23.218000000000      19.524600000000
       292    1       11.865100000000      20.119400000000       7.489490000000
       293    1       17.931500000000       1.064610000000      16.760100000000
       294    1       21.871100000000       0.407345000000      16.519100000000
       295    1       26.185000000000      12.141600000000      14.935200000000
       296    1       17.573200000000       1.747450000000      12.762900000000
       297    1        0.504615000000      16.112500000000      14.963600000000
       298    1       24.749000000000       1.110330000000      24.923800000000
       299    1       20.323800000000       6.979550000000      14.407200000000
       300    1        3.164380000000       6.144420000000      22.088700000000
       301    1       25.308500000000       5.365960000000      18.504300000000
       302    1        7.234850000000      24.062800000000      11.178800000000
       303    1       12.506900000000       1.461150000000      25.417900000000
       304    1        0.016289200000       7.016750000000      24.316900000000
       305    1        8.262750000000       4.440210000000      15.907900000000
       306    1       13.867700000000       6.787050000000      13.114400000000
       307    1       14.508500000000      15.998600000000       1.310410000000
       308    1        4.872890000000       5.667500000000      11.782500000000
       309    1        9.630540000000      26.664600000000      27.899800000000
       310    1       13.415500000000      26.033600000000      21.840700000000
       311    1       17.316600000000       8.786630000000      18.074700000000
       312    1       12.427400000000      15.205700000000      21.475600000000
       313    1       23.408100000000      21.438200000000      21.149500000000
       314    1       12.972700000000      28.528200000000       0.069687000000
       315    1       19.567500000000      21.299700000000      22.207200000000
       316    1       25.855100000000       6.236430000000      22.281500000000
       317    1        5.884740000000      26.399400000000      24.869700000000
       318    1        1.090870000000       3.781160000000       4.335360000000
       319    1       24.670400000000      24.921400000000       3.998950000000
       320    1       10.585800000000      11.548500000000       0.529780000000
       321    1        4.512400000000       4.783470000000      15.340900000000
       322    1       28.504000000000       3.435170000000      21.085500000000
       323    1       22.460700000000      19.293600000000      23.751500000000
       324    1       27.565600000000       7.302850000000       7.623350000000
       325    1       17.841900000000       4.391180000000      15.364700000000
       326    1       18.648300000000      23.966800000000      24.270300000000
       327    1       15.208200000000      11.763600000000       1.267770000000
       328    1        9.565700000000      27.703400000000      13.675900000000
       329    1       17.538600000000       2.585850000000       9.521780000000
       330    1       12.545400000000      15.232200000000      13.877900000000
       331    1       16.374100000000       0.385448000000      20.186100000000
       332    1        5.706580000000      12.222100000000      11.290100000000
       333    1       14.941500000000      24.413400000000      11.163000000000
       334    1       21.038100000000      10.178300000000      20.705100000000
       335    1       17.332300000000      12.567500000000      10.837600000000
       336    1       18.358100000000      12.333400000000      19.972900000000
       337    1       14.499600000000       0.646372000000      15.415600000000
       338    1       23.600400000000       5.873220000000      14.544700000000
       339    1       21.102900000000       3.152670000000      13.311300000000
       340    1       18.198100000000      16.619000000000      17.392000000000
       341    1       26.882000000000       9.766520000000      26.886500000000
       342    1       28.724000000000       5.418810000000      16.407600000000
       343    1       10.068900000000      13.106800000000      11.946100000000
       344    1        4.577380000000       0.058114900000      18.945500000000
       345    1       14.971100000000       6.277270000000       2.369420000000
       346    1        3.261870000000      18.382300000000      24.029400000000
       347    1       26.818700000000      10.415800000000      22.847100000000
       348    1        8.274840000000      13.415900000000      27.501300000000
       349    1       10.497700000000       8.422760000000      13.526800000000
       350    1       17.280200000000      21.544700000000      11.892300000000
       351    1       24.220500000000       2.263330000000      14.915400000000
       352    1       15.449100000000       8.376290000000      21.069100000000
       353    1       12.153400000000      15.300000000000      17.636800000000
       354    1        0.611907000000      11.842500000000      13.729600000000
       355    1        7.010940000000       7.854950000000       9.110620000000
       356    1       14.951800000000      24.146600000000      24.140100000000
       357    1       22.364700000000       6.612940000000      11.285800000000
       358    1       25.570500000000      16.914700000000      21.324200000000
       359    1        5.868480000000      13.388400000000      20.855200000000
       360    1       20.752700000000      14.419500000000      18.146300000000
       361    1       19.579800000000      23.096700000000      14.156400000000
       362    1        1.601270000000       3.187440000000      13.681400000000
       363    1       26.734000000000      19.923800000000      20.078700000000
       364    1       23.187300000000      24.100500000000      13.559200000000
       365    1        8.198240000000      20.935400000000      19.805400000000
       366    1       11.791300000000      18.623200000000      19.376400000000
       367    1       10.569100000000       7.372590000000      10.438700000000
       368    1       15.622100000000      25.280000000000      14.425900000000
       369    1        9.349960000000      17.071800000000      11.883700000000
       370    1       16.854200000000      25.056300000000      26.893100000000
       371    1       14.756300000000      22.885200000000      19.428800000000