 # LAMMPS timestep 95640
 
         144  atoms
           1  atom types
 
      0.000000000000      23.120600000000  xlo xhi
      0.000000000000      17.340450000000  ylo yhi
      0.000000000000      17.340450000000  zlo zhi
 
Masses
 
1   39.94800200             # Ar
 
Atoms # atomic
 
         1    1       21.706725546134       1.521492736257       7.106078653552
         2    1        2.665849707672       2.637072067918       5.784885749608
         3    1       21.761067853468       1.610124975747       3.208242665590
         4    1       21.465736484121       6.587998201082      13.180321847816
         5    1        3.028027362231       0.757399671759      14.828221292766
         6    1       20.927766273395      14.332171501117       2.634865396963
         7    1        2.147776814876      12.818181039285       1.160089472619
         8    1       11.404203657483      14.141013931304      13.230054007500
         9    1        7.689230382950      14.521375975216      15.031323348951
        10    1       20.786148568339       2.378543907102      10.370552888732
        11    1       17.137892487217       6.305415388364       3.462274542322
        12    1        8.129762313323       3.986353300162       6.446980721272
        13    1       22.039740476986       3.911700576369      15.068612160685
        14    1        7.585398079276       5.277037995029      14.848951944948
        15    1       11.471074184536       5.697827527009      13.780454265458
        16    1        4.261784401993       2.782388756089       2.224799244302
        17    1        1.499848357967       8.588717321740       2.290691391760
        18    1       22.524645606445       9.766144474525       9.308401394885
        19    1        8.564412150502       7.296909017564       4.795531635169
        20    1       18.020004580739       0.649937713441       7.708154365171
        21    1        1.967010099146      17.132406536912       1.571283245134
        22    1        5.716539663944      14.036447385573       4.016874596203
        23    1       10.249370241144       3.144421868581       3.779910649634
        24    1        0.788242667148      10.676946467962      15.255711367133
        25    1       15.093007176133      10.351258807930      17.242815974341
        26    1       14.824266626115       4.560111073689       7.967126026465
        27    1       10.870398847762       2.351559770246      17.275097649028
        28    1        9.671419444780       3.229259060658       9.416288155455
        29    1       18.297393792729      11.359535278216       2.080308631712
        30    1       21.343831596020      15.081373060658      10.185294561302
        31    1       20.358501982636       8.421207587521       2.974849730844
        32    1       20.505662838034       5.256517840071       4.999306523894
        33    1        2.346773637345       5.862782919597       8.721956543828
        34    1        3.105927454981      10.778699307844       4.364376389742
        35    1       14.806817171039       9.591773337240      11.233745720323
        36    1        9.334153325772       0.216945299271      13.561489515457
        37    1        6.268263130827      10.995531437258       6.400386636222
        38    1        8.703032174315      13.260746798631       1.474390108769
        39    1       12.463027268840      12.364941143464       1.891442052274
        40    1       20.824077005901       4.917855233185       1.219707760180
        41    1        6.081057822340       3.862357124587      11.829623627247
        42    1       19.149356544799       9.193481855237      10.477346599312
        43    1       14.422230320441       8.483442761010       3.614035456862
        44    1       10.925462329774      15.886185401153      16.380850696368
        45    1        8.577631438722       9.029656552462       1.631989924182
        46    1        7.609199423146       0.871538404227       0.711688336672
        47    1        4.494849006670       5.553917889779       4.676883469049
        48    1       14.697545915477      14.995759012856      16.609934462824
        49    1        0.203082771550       7.140190994244       5.771269452376
        50    1        4.655025082168      14.768775504147       0.357542046876
        51    1        9.349749527137       8.330527959286      14.618761737266
        52    1        5.048460910034       0.090142837272       4.718572347654
        53    1        8.729431637852       0.487006183200       6.233625108093
        54    1        1.327605290410       4.667093807859       3.305659785868
        55    1       13.047236674762      17.118177408634      13.648625142697
        56    1        1.919890085020      14.691451225995       4.466814892391
        57    1        9.278167962580      16.621361881364       2.831442641192
        58    1       17.758406768109       3.878818547357       1.175209084917
        59    1       20.617931128565      12.175379373077      16.679509754155
        60    1       16.118864858324      15.256241999572      13.353030193220
        61    1        1.190876758946       3.119650475812       0.059754150598
        62    1       18.613970466333       4.664962191094       8.032397213006
        63    1        6.350254009865       1.061648404379      14.804410107982
        64    1        4.594726447072      11.069549860140      13.269402934440
        65    1       19.812160630333      16.480073689614      13.312793870636
        66    1        4.475597492140       5.693817192928      17.187577343289
        67    1       22.349336235866      11.343165779848       2.639255642963
        68    1        2.726809319258      14.108288696086      14.913933977634
        69    1       22.183901432341      15.558097961964       6.219610098546
        70    1       17.034026180272       9.043859833920      14.226234228747
        71    1       11.119780449701      11.468375305271      15.920045471975
        72    1        6.675045861878      11.972344665853       9.805949528047
        73    1       21.702073975680       5.783503189447       9.287748977421
        74    1       12.158347431855       8.826594022659       1.162665393660
        75    1        9.117002074530       9.489120643463       8.798406630599
        76    1       13.245982642619       2.906670062255      11.278291692455
        77    1       13.605037358580       8.524950558736      14.914710159036
        78    1       18.687931846380      15.619827154242      16.731523248071
        79    1        2.176098492391      15.964572953883      11.108731068043
        80    1       17.406192562966      10.082016366108       5.218933812588
        81    1       17.616877216515      14.117179612095       5.702190992809
        82    1        5.422789441541       2.325787669183       7.913156679670
        83    1        8.215647080172      14.131164474317       7.055287676322
        84    1       18.962232583620       3.604222536688      13.075186670756
        85    1        7.362887438308       4.653386298422       2.238649426616
        86    1       13.532188200869       2.983208665205      15.089433912090
        87    1       13.709154043394       6.273823714898      10.810392448094
        88    1        3.051465341707       2.429101557955      10.925445512417
        89    1       14.814072496017       0.041878302110       5.228295682657
        90    1       15.592348598879      14.350693194644       2.631179982182
        91    1       11.870731539925      14.981641984472       5.277284710990
        92    1        1.904879319113      17.041271509711       7.779927132670
        93    1       23.058426776010       1.230382907194      13.134494020630
        94    1       20.965574632115      11.821631023614       6.152205781105
        95    1       16.305841495922       5.322186398155      14.263146149674
        96    1       16.489825874533       1.207308884973      15.960131558012
        97    1        7.349103431021      17.111632631332       9.882834413982
        98    1       19.988252532527       8.236835976346       7.200940800249
        99    1        1.358974311688      11.884789009087      11.759127964313
       100    1       18.685175652222      17.175751366537       3.781959124189
       101    1        6.418443927890       6.706741971189       8.663806615556
       102    1       14.773600043501       0.546265690845       8.892750382144
       103    1        1.658358172147       7.847416610236      12.272659899022
       104    1       16.966107772151       5.791616582673      10.938710101126
       105    1        8.082168326645      11.221767824409      13.123920428700
       106    1       12.510854295755      16.635639254745       2.374941878530
       107    1       17.236503742539      12.022660919049      11.483102894015
       108    1       13.841660110327      13.662898775384      10.319069785363
       109    1       11.172878285846      16.404435022556       8.789852076915
       110    1        3.859590059019       9.278698205940       9.870217743994
       111    1       17.361901802376      12.299883068799      15.101241466700
       112    1       14.360070559109       2.563754685354       1.780035700903
       113    1       12.090249701905       8.932020454526       6.208723689795
       114    1        4.773505106617      14.985362871772       8.151046123670
       115    1       20.068939755001       1.693278330491      17.115871608436
       116    1       16.228799533643       7.637682626638       8.078486883199
       117    1        5.139170181392       7.445656664586      12.851870174293
       118    1        2.633934884268       4.305867395380      13.807741595554
       119    1        1.297469882038      12.548617511416       7.502062324138
       120    1       10.385715461247       6.027473188143       0.047415015954
       121    1        5.211261518896       8.559442741912       2.044364113084
       122    1       11.982095174027       2.201005361285       6.624052938556
       123    1       14.615210253498       6.079847159677       0.678092460920
       124    1        9.212761760033       6.828007348848      10.906139846105
       125    1       13.970173912628      11.857354405118      13.776610531330
       126    1        1.063199178305       6.680872209549      16.083479130032
       127    1       16.313245176107       1.375410999339      12.246714383424
       128    1       22.892454798396      15.907407297956      16.272699614806
       129    1       20.641827902070      11.965896924462      12.856777010945
       130    1       11.314746154945      10.283126167961      11.584751950567
       131    1        6.259527018777      11.162188639385      17.043431075680
       132    1       18.045779204919       7.403091655671      17.313806486204
       133    1        5.537312949887      15.587999582853      12.280686215840
       134    1       10.920458998116       5.949698155701       7.607973183820
       135    1        9.784208434973      11.607478340180       4.307080589475
       136    1        3.479622781147       8.968172313801      16.299921146199
       137    1       15.492826607979      11.210983027749       7.992559925697
       138    1       13.947510134420      11.846868860811       5.019982044509
       139    1       11.276055969647      12.436376982398       8.385263980669
       140    1        8.966979811218      14.136683876850      10.968226782668
       141    1       12.802873783681       5.231901701982       4.373105788668
       142    1       17.219459602571      14.999054676603       9.624415254845
       143    1       21.410722345680       8.671750576284      16.680854231917
       144    1       16.735968317482       3.039443599960       4.900875149644
 
Velocities
 
         1   -0.12796645E+01  -0.24103571E+01  -0.15693253E+01
         2    0.13900551E+01  -0.86018109E-01   0.32738992E+00
         3    0.76519283E+00  -0.46380573E+00   0.79024793E+00
         4    0.10130734E+01  -0.32877773E+00   0.18551214E+01
         5   -0.90884738E+00   0.77946306E-01  -0.11769409E+01
         6    0.25471216E+01   0.54015313E+00   0.13895085E+01
         7   -0.13717435E+01   0.22734580E+00   0.74837406E+00
         8    0.16246287E+01   0.21791761E+01   0.11068250E+01
         9    0.39254821E+00  -0.75379298E+00   0.32330814E+00
        10   -0.44815300E+00   0.17023477E+00   0.49721898E-01
        11   -0.54623823E+00  -0.46654923E+00   0.41265550E+00
        12   -0.85186630E+00   0.13107151E+00   0.10275153E+01
        13    0.80614408E+00   0.13316872E+01   0.10586326E+01
        14    0.31047515E+00  -0.31637047E+01   0.49050253E+00
        15    0.16776703E+01   0.11385791E+01  -0.18560378E+01
        16    0.14920944E+01   0.36654264E+00  -0.97505827E+00
        17   -0.28398345E+01  -0.15335980E+01  -0.15807980E+01
        18   -0.40285221E+00  -0.11101207E+01  -0.21986819E+00
        19    0.13062245E+01  -0.14152202E-01  -0.69269070E+00
        20    0.10014527E+01   0.14500614E+01  -0.12867050E+01
        21    0.49664053E+00  -0.27754130E+00   0.14786519E+01
        22    0.89871282E+00   0.11811764E+01   0.13773870E+01
        23   -0.19048252E+01   0.25663055E+01   0.14930610E+01
        24    0.68890361E+00   0.22099447E+00   0.26248778E+01
        25   -0.80323758E+00  -0.33684778E+00   0.57959879E+00
        26   -0.14695268E+01  -0.29909151E+01  -0.10150528E+01
        27    0.54545846E+00   0.66913545E+00   0.14771069E+01
        28   -0.19967233E+01   0.11305634E+00   0.45906342E+00
        29   -0.65361353E+00  -0.32218753E-01  -0.14553963E+01
        30   -0.11689364E+01  -0.15219263E+01   0.64966243E-01
        31    0.18346079E+01   0.13346472E+00  -0.20298619E+01
        32    0.14621030E+01  -0.10170862E+01  -0.17719354E+01
        33    0.15083919E+01   0.22988539E+01  -0.57353871E-01
        34    0.10190396E+01  -0.11052035E+01   0.62712637E+00
        35    0.36222776E+01   0.99140063E+00   0.15783724E+01
        36    0.64064285E+00  -0.15316870E+01   0.11108557E+01
        37   -0.17574654E+01  -0.12856542E+01   0.19214477E+00
        38   -0.37244079E+00  -0.99823641E+00  -0.17929903E+01
        39    0.81865344E+00   0.38550970E+01   0.10774992E+01
        40   -0.21651436E+00   0.14390984E+01   0.12531601E+01
        41    0.15397597E+01   0.45222344E+00   0.14963489E+01
        42    0.93842905E+00  -0.96511378E+00  -0.24720666E+00
        43    0.80490952E+00   0.19061959E+01   0.94874271E+00
        44   -0.12309536E+01   0.12112213E+01   0.28899489E+00
        45   -0.14448901E+01   0.18825209E+00   0.65541648E+00
        46    0.38271578E+00  -0.82247327E+00  -0.17033599E+01
        47    0.12710590E+01   0.26433165E+01  -0.55565883E+00
        48   -0.14782102E+01  -0.81864061E+00   0.16382551E+01
        49   -0.73463179E+00   0.49000613E+00  -0.14469419E+01
        50   -0.61929384E+00  -0.87403927E+00  -0.60488765E+00
        51   -0.40100561E+00  -0.13600385E-01   0.21300442E+01
        52    0.13417198E+01  -0.21241268E+00   0.13927508E+01
        53   -0.72318008E+00   0.97454091E+00  -0.20356014E+01
        54   -0.10902291E+01  -0.28158728E+01  -0.11082189E+01
        55   -0.18423716E+01   0.22017701E+01  -0.49657262E+00
        56    0.11684089E+01   0.19706817E+00   0.46862303E+00
        57    0.46110173E+00   0.29931331E+01  -0.85284773E-01
        58   -0.66200480E+00  -0.62973348E+00   0.18064996E+01
        59    0.19591619E+00   0.10748610E+01  -0.24446090E+01
        60   -0.82496680E-01  -0.90204039E+00  -0.65614948E-01
        61    0.18472301E+00   0.16831717E+01  -0.29127980E+01
        62    0.94316950E+00  -0.65540590E+00   0.22786959E+01
        63    0.12537618E+01  -0.14319188E+01   0.18207901E+01
        64    0.12560815E+01  -0.14277693E+01  -0.55250515E-01
        65    0.67297047E+00  -0.40552257E+00   0.33586748E+00
        66   -0.12920944E+01  -0.80221461E-01   0.29620226E+00
        67    0.91469592E+00  -0.20404568E+01  -0.27068080E+00
        68    0.18358075E+01   0.58809707E+00  -0.36385056E+00
        69   -0.60774803E+00  -0.50838262E+00  -0.14584404E+01
        70    0.78751929E+00   0.22054239E+01  -0.13836858E+01
        71    0.21453478E+01   0.11612197E+01  -0.35837423E+00
        72   -0.15084813E+01  -0.11558898E+00  -0.18698719E+00
        73   -0.24449915E+01  -0.31126861E+00   0.41082990E+00
        74    0.57656212E+00   0.18380385E+01  -0.76752360E+00
        75   -0.45807887E+00   0.12091657E+01  -0.17203565E+01
        76   -0.15682375E+01  -0.67630926E+00  -0.10559234E+01
        77    0.52807918E+00  -0.10129451E+01  -0.23684738E+01
        78   -0.40114340E+00   0.23031307E+01  -0.30808428E+00
        79   -0.21467740E+01   0.20701302E+01   0.17790849E+01
        80    0.84707442E+00  -0.28979045E+01  -0.64426601E+00
        81   -0.13552975E+00  -0.45323006E+00   0.20661907E+01
        82   -0.19028034E+01  -0.10458951E+01   0.12231842E+00
        83   -0.39433315E+00  -0.10137026E+01  -0.59171847E+00
        84    0.24283271E+01   0.64950872E+00  -0.22890719E+01
        85    0.10450706E+01  -0.83790366E+00   0.14210697E+01
        86    0.16973497E+01  -0.10403159E+01   0.55107676E+00
        87   -0.41139147E-01  -0.28372040E+01  -0.10988009E+01
        88    0.31918839E-01  -0.17835751E+00  -0.18756384E+01
        89    0.31477070E+00   0.17187443E+01  -0.81545873E+00
        90    0.21128203E+01  -0.82300377E+00  -0.18669326E+01
        91    0.16283089E+01  -0.29279808E+00   0.26284158E+00
        92   -0.34947695E+00   0.75099819E+00   0.22952992E+01
        93    0.13982406E+01   0.83555586E-01   0.49349633E+00
        94    0.41720509E+00  -0.15452462E+01  -0.98116957E+00
        95   -0.28626540E+01   0.16687060E+01  -0.19781821E+01
        96   -0.20653152E+00   0.24418490E+01   0.81504759E+00
        97   -0.23356742E+01   0.20899840E+00  -0.35182966E+00
        98   -0.15086499E+01  -0.17778094E+01   0.12008931E+01
        99   -0.99172043E+00  -0.12023222E+00   0.16748609E+01
       100   -0.94736315E+00   0.72081207E+00   0.19167579E+01
       101   -0.10255150E+01   0.16173007E+01   0.20564593E+01
       102   -0.75818262E+00  -0.14661383E+01   0.94664139E+00
       103    0.11586128E+01   0.13275580E+01   0.23211797E-01
       104   -0.28755301E+01  -0.59744200E+00   0.21659120E+01
       105   -0.45855404E+00   0.18762293E+01   0.26463064E+01
       106    0.87891705E+00   0.14845434E+01   0.14638039E+00
       107   -0.80241912E+00   0.35157098E+00   0.36797543E+00
       108    0.87268531E+00   0.11394891E+01   0.31754119E+01
       109   -0.70410866E+00  -0.24720461E+01   0.80921765E+00
       110    0.18412328E+01   0.50571638E+00  -0.78938242E+00
       111   -0.75861738E+00   0.18259711E+00  -0.18100113E+01
       112    0.63042574E+00   0.42336465E+00  -0.40140113E+00
       113    0.10894884E+01   0.91691898E+00  -0.31086676E+00
       114    0.41419282E+00   0.17754303E+01  -0.11038964E+01
       115   -0.30156799E+00  -0.18614038E+01  -0.20886043E+01
       116    0.14957468E+00  -0.24194271E+00  -0.20147660E+01
       117   -0.13862465E+01   0.20998491E+01  -0.30657597E+00
       118   -0.18592390E+01   0.16960580E+01   0.26916261E+00
       119   -0.25642807E+01  -0.30770793E+00   0.13184601E+01
       120   -0.13119771E+01  -0.67420248E+00   0.10106192E+01
       121    0.97151574E+00  -0.22823964E+01   0.19435051E+01
       122   -0.14361005E+01   0.10860254E+01  -0.15710058E+01
       123    0.73218030E+00  -0.74402524E+00   0.41075432E+00
       124   -0.16594342E+00  -0.83006008E+00  -0.51823593E+00
       125    0.10234931E+01  -0.33240873E+01  -0.73966185E+00
       126    0.13749956E+01   0.34531624E+00   0.22098691E+01
       127   -0.68237109E+00  -0.25951360E+01  -0.11237789E+00
       128    0.65066451E+00  -0.16893161E+01  -0.49619414E+00
       129    0.13196332E+01   0.16090306E+01   0.73865164E+00
       130    0.93651548E+00   0.93256636E+00   0.15443031E+00
       131   -0.29584746E-01  -0.21703646E+01   0.12068140E+00
       132    0.25865883E+01   0.58120946E+00  -0.84674299E+00
       133   -0.39545634E+00   0.43689811E+00  -0.14389425E+01
       134    0.42032855E+01   0.30946329E+01   0.25174016E+01
       135   -0.41775125E+01  -0.29472782E+01  -0.17756102E+01
       136    0.12504796E+01  -0.27505106E+01  -0.17027842E+01
       137   -0.38350504E+00  -0.52023205E+00   0.15501186E+01
       138    0.57133920E+00  -0.94692826E+00  -0.15881929E+01
       139   -0.16277651E+00   0.16591393E+01  -0.12169493E+01
       140   -0.96209529E+00   0.86681873E+00   0.50817904E+00
       141   -0.85470705E+00  -0.28363728E+00   0.48682199E+00
       142   -0.28489622E+01  -0.10969654E+01  -0.30722484E+01
       143   -0.16536293E+01  -0.15301705E+00  -0.15489564E+01
       144   -0.16776999E+01   0.24256766E+00  -0.16859688E+01
